<!-- C 2024 Mitch Richling -->
<!-- This is a simple cube with some associated data -->
<VTKFile type='UnstructuredGrid' version='0.1' byte_order='LittleEndian'>
  <UnstructuredGrid>
    <Piece NumberOfPoints='8' NumberOfCells="6">
      <PointData Scalars='Temperature' Vectors='Velocity'>
        <DataArray Name='Velocity' type='Float64' format='ascii' NumberOfComponents='3'>
          1.1 1.2 1.3
          2.1 2.2 2.3
          3.1 3.2 3.3 
          4.1 4.2 4.3
          5.1 5.2 5.3
          6.1 6.2 6.3
          7.1 7.2 7.3
          8.1 8.2 8.3
        </DataArray>
        <DataArray Name='Temperature' type='Float64' format='ascii' NumberOfComponents='1'>
          1.1
          2.2
          3.3
          4.4
          5.5
          6.6
          7.7
          8.8
        </DataArray>
      </PointData>
      <Points>
        <DataArray Name='Points' type='Float64' format='ascii' NumberOfComponents='3'>
          0.0 0.0 0.0   
          1.0 0.0 0.0  
          1.0 1.0 0.0  
          0.0 1.0 0.0  
          0.0 0.0 1.0   
          1.0 0.0 1.0  
          1.0 1.0 1.0  
          0.0 1.0 1.0  
        </DataArray>
      </Points>
      <Cells>    
        <DataArray type="Int32" Name="connectivity">
          0 1 2 3
          4 5 6 7
          0 1 5 4
          1 2 6 5
          2 3 7 6
          3 0 4 7
        </DataArray>
        <DataArray type="Int32" Name="offsets">
          4 
          8 
          12
          16
          20
          24
        </DataArray>
        <DataArray type="UInt8" Name="types">
          9
          9
          9
          9
          9
          9
        </DataArray>
      </Cells>
    </Piece>
  </UnstructuredGrid>
</VTKFile>
