<VTKFile type='UnstructuredGrid' version='0.1' byte_order='LittleEndian'>
<!-- lorenz.csv -->
  <UnstructuredGrid>
    <Piece NumberOfPoints='5000' NumberOfCells='4999'>
      <PointData Scalars='t i x y z' >
        <DataArray Name='t' type='Float64' format='ascii' NumberOfComponents='1'>
          50.009999999998620 50.019999999998618 50.029999999998616 50.039999999998614 50.049999999998612 50.059999999998610 50.069999999998608 50.079999999998606 50.089999999998604 50.099999999998602 50.109999999998600 50.119999999998598 50.129999999998596 50.139999999998594 50.149999999998592 50.159999999998590 50.169999999998588 50.179999999998586 50.189999999998584 50.199999999998582 50.209999999998580 50.219999999998578 50.229999999998576 50.239999999998574 50.249999999998572 50.259999999998570 50.269999999998568 50.279999999998566 50.289999999998564 50.299999999998562 50.309999999998560 50.319999999998558 50.329999999998556 50.339999999998554 50.349999999998552 50.359999999998550 50.369999999998548 50.379999999998546 50.389999999998544 50.399999999998542 50.409999999998540 50.419999999998538 50.429999999998536 50.439999999998534 50.449999999998532 50.459999999998530 50.469999999998528 50.479999999998526 50.489999999998524 50.499999999998522 50.509999999998520 50.519999999998518 50.529999999998516 50.539999999998514 50.549999999998512 50.559999999998510 50.569999999998508 50.579999999998506 50.589999999998504 50.599999999998502 50.609999999998500 50.619999999998498 50.629999999998496 50.639999999998494 50.649999999998492 50.659999999998490 50.669999999998488 50.679999999998486 50.689999999998484 50.699999999998482 50.709999999998480 50.719999999998478 50.729999999998476 50.739999999998474 50.749999999998472 50.759999999998470 50.769999999998468 50.779999999998466 50.789999999998464 50.799999999998462 50.809999999998460 50.819999999998458 50.829999999998456 50.839999999998454 50.849999999998452 50.859999999998450 50.869999999998448 50.879999999998446 50.889999999998444 50.899999999998442 50.909999999998441 50.919999999998439 50.929999999998437 50.939999999998435 50.949999999998433 50.959999999998431 50.969999999998429 50.979999999998427 50.989999999998425 50.999999999998423 51.009999999998421 51.019999999998419 51.029999999998417 51.039999999998415 51.049999999998413 51.059999999998411 51.069999999998409 51.079999999998407 51.089999999998405 51.099999999998403 51.109999999998401 51.119999999998399 51.129999999998397 51.139999999998395 51.149999999998393 51.159999999998391 51.169999999998389 51.179999999998387 51.189999999998385 51.199999999998383 51.209999999998381 51.219999999998379 51.229999999998377 51.239999999998375 51.249999999998373 51.259999999998371 51.269999999998369 51.279999999998367 51.289999999998365 51.299999999998363 51.309999999998361 51.319999999998359 51.329999999998357 51.339999999998355 51.349999999998353 51.359999999998351 51.369999999998349 51.379999999998347 51.389999999998345 51.399999999998343 51.409999999998341 51.419999999998339 51.429999999998337 51.439999999998335 51.449999999998333 51.459999999998331 51.469999999998329 51.479999999998327 51.489999999998325 51.499999999998323 51.509999999998321 51.519999999998319 51.529999999998317 51.539999999998315 51.549999999998313 51.559999999998311 51.569999999998309 51.579999999998307 51.589999999998305 51.599999999998303 51.609999999998301 51.619999999998299 51.629999999998297 51.639999999998295 51.649999999998293 51.659999999998291 51.669999999998289 51.679999999998287 51.689999999998285 51.699999999998283 51.709999999998281 51.719999999998279 51.729999999998277 51.739999999998275 51.749999999998273 51.759999999998271 51.769999999998269 51.779999999998267 51.789999999998265 51.799999999998263 51.809999999998261 51.819999999998259 51.829999999998257 51.839999999998255 51.849999999998253 51.859999999998251 51.869999999998250 51.879999999998248 51.889999999998246 51.899999999998244 51.909999999998242 51.919999999998240 51.929999999998238 51.939999999998236 51.949999999998234 51.959999999998232 51.969999999998230 51.979999999998228 51.989999999998226 51.999999999998224 52.009999999998222 52.019999999998220 52.029999999998218 52.039999999998216 52.049999999998214 52.059999999998212 52.069999999998210 52.079999999998208 52.089999999998206 52.099999999998204 52.109999999998202 52.119999999998200 52.129999999998198 52.139999999998196 52.149999999998194 52.159999999998192 52.169999999998190 52.179999999998188 52.189999999998186 52.199999999998184 52.209999999998182 52.219999999998180 52.229999999998178 52.239999999998176 52.249999999998174 52.259999999998172 52.269999999998170 52.279999999998168 52.289999999998166 52.299999999998164 52.309999999998162 52.319999999998160 52.329999999998158 52.339999999998156 52.349999999998154 52.359999999998152 52.369999999998150 52.379999999998148 52.389999999998146 52.399999999998144 52.409999999998142 52.419999999998140 52.429999999998138 52.439999999998136 52.449999999998134 52.459999999998132 52.469999999998130 52.479999999998128 52.489999999998126 52.499999999998124 52.509999999998122 52.519999999998120 52.529999999998118 52.539999999998116 52.549999999998114 52.559999999998112 52.569999999998110 52.579999999998108 52.589999999998106 52.599999999998104 52.609999999998102 52.619999999998100 52.629999999998098 52.639999999998096 52.649999999998094 52.659999999998092 52.669999999998090 52.679999999998088 52.689999999998086 52.699999999998084 52.709999999998082 52.719999999998080 52.729999999998078 52.739999999998076 52.749999999998074 52.759999999998072 52.769999999998070 52.779999999998068 52.789999999998066 52.799999999998064 52.809999999998062 52.819999999998061 52.829999999998059 52.839999999998057 52.849999999998055 52.859999999998053 52.869999999998051 52.879999999998049 52.889999999998047 52.899999999998045 52.909999999998043 52.919999999998041 52.929999999998039 52.939999999998037 52.949999999998035 52.959999999998033 52.969999999998031 52.979999999998029 52.989999999998027 52.999999999998025 53.009999999998023 53.019999999998021 53.029999999998019 53.039999999998017 53.049999999998015 53.059999999998013 53.069999999998011 53.079999999998009 53.089999999998007 53.099999999998005 53.109999999998003 53.119999999998001 53.129999999997999 53.139999999997997 53.149999999997995 53.159999999997993 53.169999999997991 53.179999999997989 53.189999999997987 53.199999999997985 53.209999999997983 53.219999999997981 53.229999999997979 53.239999999997977 53.249999999997975 53.259999999997973 53.269999999997971 53.279999999997969 53.289999999997967 53.299999999997965 53.309999999997963 53.319999999997961 53.329999999997959 53.339999999997957 53.349999999997955 53.359999999997953 53.369999999997951 53.379999999997949 53.389999999997947 53.399999999997945 53.409999999997943 53.419999999997941 53.429999999997939 53.439999999997937 53.449999999997935 53.459999999997933 53.469999999997931 53.479999999997929 53.489999999997927 53.499999999997925 53.509999999997923 53.519999999997921 53.529999999997919 53.539999999997917 53.549999999997915 53.559999999997913 53.569999999997911 53.579999999997909 53.589999999997907 53.599999999997905 53.609999999997903 53.619999999997901 53.629999999997899 53.639999999997897 53.649999999997895 53.659999999997893 53.669999999997891 53.679999999997889 53.689999999997887 53.699999999997885 53.709999999997883 53.719999999997881 53.729999999997879 53.739999999997877 53.749999999997875 53.759999999997873 53.769999999997871 53.779999999997870 53.789999999997868 53.799999999997866 53.809999999997864 53.819999999997862 53.829999999997860 53.839999999997858 53.849999999997856 53.859999999997854 53.869999999997852 53.879999999997850 53.889999999997848 53.899999999997846 53.909999999997844 53.919999999997842 53.929999999997840 53.939999999997838 53.949999999997836 53.959999999997834 53.969999999997832 53.979999999997830 53.989999999997828 53.999999999997826 54.009999999997824 54.019999999997822 54.029999999997820 54.039999999997818 54.049999999997816 54.059999999997814 54.069999999997812 54.079999999997810 54.089999999997808 54.099999999997806 54.109999999997804 54.119999999997802 54.129999999997800 54.139999999997798 54.149999999997796 54.159999999997794 54.169999999997792 54.179999999997790 54.189999999997788 54.199999999997786 54.209999999997784 54.219999999997782 54.229999999997780 54.239999999997778 54.249999999997776 54.259999999997774 54.269999999997772 54.279999999997770 54.289999999997768 54.299999999997766 54.309999999997764 54.319999999997762 54.329999999997760 54.339999999997758 54.349999999997756 54.359999999997754 54.369999999997752 54.379999999997750 54.389999999997748 54.399999999997746 54.409999999997744 54.419999999997742 54.429999999997740 54.439999999997738 54.449999999997736 54.459999999997734 54.469999999997732 54.479999999997730 54.489999999997728 54.499999999997726 54.509999999997724 54.519999999997722 54.529999999997720 54.539999999997718 54.549999999997716 54.559999999997714 54.569999999997712 54.579999999997710 54.589999999997708 54.599999999997706 54.609999999997704 54.619999999997702 54.629999999997700 54.639999999997698 54.649999999997696 54.659999999997694 54.669999999997692 54.679999999997690 54.689999999997688 54.699999999997686 54.709999999997684 54.719999999997682 54.729999999997681 54.739999999997679 54.749999999997677 54.759999999997675 54.769999999997673 54.779999999997671 54.789999999997669 54.799999999997667 54.809999999997665 54.819999999997663 54.829999999997661 54.839999999997659 54.849999999997657 54.859999999997655 54.869999999997653 54.879999999997651 54.889999999997649 54.899999999997647 54.909999999997645 54.919999999997643 54.929999999997641 54.939999999997639 54.949999999997637 54.959999999997635 54.969999999997633 54.979999999997631 54.989999999997629 54.999999999997627 55.009999999997625 55.019999999997623 55.029999999997621 55.039999999997619 55.049999999997617 55.059999999997615 55.069999999997613 55.079999999997611 55.089999999997609 55.099999999997607 55.109999999997605 55.119999999997603 55.129999999997601 55.139999999997599 55.149999999997597 55.159999999997595 55.169999999997593 55.179999999997591 55.189999999997589 55.199999999997587 55.209999999997585 55.219999999997583 55.229999999997581 55.239999999997579 55.249999999997577 55.259999999997575 55.269999999997573 55.279999999997571 55.289999999997569 55.299999999997567 55.309999999997565 55.319999999997563 55.329999999997561 55.339999999997559 55.349999999997557 55.359999999997555 55.369999999997553 55.379999999997551 55.389999999997549 55.399999999997547 55.409999999997545 55.419999999997543 55.429999999997541 55.439999999997539 55.449999999997537 55.459999999997535 55.469999999997533 55.479999999997531 55.489999999997529 55.499999999997527 55.509999999997525 55.519999999997523 55.529999999997521 55.539999999997519 55.549999999997517 55.559999999997515 55.569999999997513 55.579999999997511 55.589999999997509 55.599999999997507 55.609999999997505 55.619999999997503 55.629999999997501 55.639999999997499 55.649999999997497 55.659999999997495 55.669999999997493 55.679999999997491 55.689999999997490 55.699999999997488 55.709999999997486 55.719999999997484 55.729999999997482 55.739999999997480 55.749999999997478 55.759999999997476 55.769999999997474 55.779999999997472 55.789999999997470 55.799999999997468 55.809999999997466 55.819999999997464 55.829999999997462 55.839999999997460 55.849999999997458 55.859999999997456 55.869999999997454 55.879999999997452 55.889999999997450 55.899999999997448 55.909999999997446 55.919999999997444 55.929999999997442 55.939999999997440 55.949999999997438 55.959999999997436 55.969999999997434 55.979999999997432 55.989999999997430 55.999999999997428 56.009999999997426 56.019999999997424 56.029999999997422 56.039999999997420 56.049999999997418 56.059999999997416 56.069999999997414 56.079999999997412 56.089999999997410 56.099999999997408 56.109999999997406 56.119999999997404 56.129999999997402 56.139999999997400 56.149999999997398 56.159999999997396 56.169999999997394 56.179999999997392 56.189999999997390 56.199999999997388 56.209999999997386 56.219999999997384 56.229999999997382 56.239999999997380 56.249999999997378 56.259999999997376 56.269999999997374 56.279999999997372 56.289999999997370 56.299999999997368 56.309999999997366 56.319999999997364 56.329999999997362 56.339999999997360 56.349999999997358 56.359999999997356 56.369999999997354 56.379999999997352 56.389999999997350 56.399999999997348 56.409999999997346 56.419999999997344 56.429999999997342 56.439999999997340 56.449999999997338 56.459999999997336 56.469999999997334 56.479999999997332 56.489999999997330 56.499999999997328 56.509999999997326 56.519999999997324 56.529999999997322 56.539999999997320 56.549999999997318 56.559999999997316 56.569999999997314 56.579999999997312 56.589999999997310 56.599999999997308 56.609999999997306 56.619999999997304 56.629999999997302 56.639999999997301 56.649999999997299 56.659999999997297 56.669999999997295 56.679999999997293 56.689999999997291 56.699999999997289 56.709999999997287 56.719999999997285 56.729999999997283 56.739999999997281 56.749999999997279 56.759999999997277 56.769999999997275 56.779999999997273 56.789999999997271 56.799999999997269 56.809999999997267 56.819999999997265 56.829999999997263 56.839999999997261 56.849999999997259 56.859999999997257 56.869999999997255 56.879999999997253 56.889999999997251 56.899999999997249 56.909999999997247 56.919999999997245 56.929999999997243 56.939999999997241 56.949999999997239 56.959999999997237 56.969999999997235 56.979999999997233 56.989999999997231 56.999999999997229 57.009999999997227 57.019999999997225 57.029999999997223 57.039999999997221 57.049999999997219 57.059999999997217 57.069999999997215 57.079999999997213 57.089999999997211 57.099999999997209 57.109999999997207 57.119999999997205 57.129999999997203 57.139999999997201 57.149999999997199 57.159999999997197 57.169999999997195 57.179999999997193 57.189999999997191 57.199999999997189 57.209999999997187 57.219999999997185 57.229999999997183 57.239999999997181 57.249999999997179 57.259999999997177 57.269999999997175 57.279999999997173 57.289999999997171 57.299999999997169 57.309999999997167 57.319999999997165 57.329999999997163 57.339999999997161 57.349999999997159 57.359999999997157 57.369999999997155 57.379999999997153 57.389999999997151 57.399999999997149 57.409999999997147 57.419999999997145 57.429999999997143 57.439999999997141 57.449999999997139 57.459999999997137 57.469999999997135 57.479999999997133 57.489999999997131 57.499999999997129 57.509999999997127 57.519999999997125 57.529999999997123 57.539999999997121 57.549999999997119 57.559999999997117 57.569999999997115 57.579999999997113 57.589999999997112 57.599999999997110 57.609999999997108 57.619999999997106 57.629999999997104 57.639999999997102 57.649999999997100 57.659999999997098 57.669999999997096 57.679999999997094 57.689999999997092 57.699999999997090 57.709999999997088 57.719999999997086 57.729999999997084 57.739999999997082 57.749999999997080 57.759999999997078 57.769999999997076 57.779999999997074 57.789999999997072 57.799999999997070 57.809999999997068 57.819999999997066 57.829999999997064 57.839999999997062 57.849999999997060 57.859999999997058 57.869999999997056 57.879999999997054 57.889999999997052 57.899999999997050 57.909999999997048 57.919999999997046 57.929999999997044 57.939999999997042 57.949999999997040 57.959999999997038 57.969999999997036 57.979999999997034 57.989999999997032 57.999999999997030 58.009999999997028 58.019999999997026 58.029999999997024 58.039999999997022 58.049999999997020 58.059999999997018 58.069999999997016 58.079999999997014 58.089999999997012 58.099999999997010 58.109999999997008 58.119999999997006 58.129999999997004 58.139999999997002 58.149999999997000 58.159999999996998 58.169999999996996 58.179999999996994 58.189999999996992 58.199999999996990 58.209999999996988 58.219999999996986 58.229999999996984 58.239999999996982 58.249999999996980 58.259999999996978 58.269999999996976 58.279999999996974 58.289999999996972 58.299999999996970 58.309999999996968 58.319999999996966 58.329999999996964 58.339999999996962 58.349999999996960 58.359999999996958 58.369999999996956 58.379999999996954 58.389999999996952 58.399999999996950 58.409999999996948 58.419999999996946 58.429999999996944 58.439999999996942 58.449999999996940 58.459999999996938 58.469999999996936 58.479999999996934 58.489999999996932 58.499999999996930 58.509999999996928 58.519999999996926 58.529999999996924 58.539999999996922 58.549999999996921 58.559999999996919 58.569999999996917 58.579999999996915 58.589999999996913 58.599999999996911 58.609999999996909 58.619999999996907 58.629999999996905 58.639999999996903 58.649999999996901 58.659999999996899 58.669999999996897 58.679999999996895 58.689999999996893 58.699999999996891 58.709999999996889 58.719999999996887 58.729999999996885 58.739999999996883 58.749999999996881 58.759999999996879 58.769999999996877 58.779999999996875 58.789999999996873 58.799999999996871 58.809999999996869 58.819999999996867 58.829999999996865 58.839999999996863 58.849999999996861 58.859999999996859 58.869999999996857 58.879999999996855 58.889999999996853 58.899999999996851 58.909999999996849 58.919999999996847 58.929999999996845 58.939999999996843 58.949999999996841 58.959999999996839 58.969999999996837 58.979999999996835 58.989999999996833 58.999999999996831 59.009999999996829 59.019999999996827 59.029999999996825 59.039999999996823 59.049999999996821 59.059999999996819 59.069999999996817 59.079999999996815 59.089999999996813 59.099999999996811 59.109999999996809 59.119999999996807 59.129999999996805 59.139999999996803 59.149999999996801 59.159999999996799 59.169999999996797 59.179999999996795 59.189999999996793 59.199999999996791 59.209999999996789 59.219999999996787 59.229999999996785 59.239999999996783 59.249999999996781 59.259999999996779 59.269999999996777 59.279999999996775 59.289999999996773 59.299999999996771 59.309999999996769 59.319999999996767 59.329999999996765 59.339999999996763 59.349999999996761 59.359999999996759 59.369999999996757 59.379999999996755 59.389999999996753 59.399999999996751 59.409999999996749 59.419999999996747 59.429999999996745 59.439999999996743 59.449999999996741 59.459999999996739 59.469999999996737 59.479999999996735 59.489999999996733 59.499999999996732 59.509999999996730 59.519999999996728 59.529999999996726 59.539999999996724 59.549999999996722 59.559999999996720 59.569999999996718 59.579999999996716 59.589999999996714 59.599999999996712 59.609999999996710 59.619999999996708 59.629999999996706 59.639999999996704 59.649999999996702 59.659999999996700 59.669999999996698 59.679999999996696 59.689999999996694 59.699999999996692 59.709999999996690 59.719999999996688 59.729999999996686 59.739999999996684 59.749999999996682 59.759999999996680 59.769999999996678 59.779999999996676 59.789999999996674 59.799999999996672 59.809999999996670 59.819999999996668 59.829999999996666 59.839999999996664 59.849999999996662 59.859999999996660 59.869999999996658 59.879999999996656 59.889999999996654 59.899999999996652 59.909999999996650 59.919999999996648 59.929999999996646 59.939999999996644 59.949999999996642 59.959999999996640 59.969999999996638 59.979999999996636 59.989999999996634 59.999999999996632 60.009999999996630 60.019999999996628 60.029999999996626 60.039999999996624 60.049999999996622 60.059999999996620 60.069999999996618 60.079999999996616 60.089999999996614 60.099999999996612 60.109999999996610 60.119999999996608 60.129999999996606 60.139999999996604 60.149999999996602 60.159999999996600 60.169999999996598 60.179999999996596 60.189999999996594 60.199999999996592 60.209999999996590 60.219999999996588 60.229999999996586 60.239999999996584 60.249999999996582 60.259999999996580 60.269999999996578 60.279999999996576 60.289999999996574 60.299999999996572 60.309999999996570 60.319999999996568 60.329999999996566 60.339999999996564 60.349999999996562 60.359999999996560 60.369999999996558 60.379999999996556 60.389999999996554 60.399999999996552 60.409999999996550 60.419999999996548 60.429999999996546 60.439999999996544 60.449999999996542 60.459999999996541 60.469999999996539 60.479999999996537 60.489999999996535 60.499999999996533 60.509999999996531 60.519999999996529 60.529999999996527 60.539999999996525 60.549999999996523 60.559999999996521 60.569999999996519 60.579999999996517 60.589999999996515 60.599999999996513 60.609999999996511 60.619999999996509 60.629999999996507 60.639999999996505 60.649999999996503 60.659999999996501 60.669999999996499 60.679999999996497 60.689999999996495 60.699999999996493 60.709999999996491 60.719999999996489 60.729999999996487 60.739999999996485 60.749999999996483 60.759999999996481 60.769999999996479 60.779999999996477 60.789999999996475 60.799999999996473 60.809999999996471 60.819999999996469 60.829999999996467 60.839999999996465 60.849999999996463 60.859999999996461 60.869999999996459 60.879999999996457 60.889999999996455 60.899999999996453 60.909999999996451 60.919999999996449 60.929999999996447 60.939999999996445 60.949999999996443 60.959999999996441 60.969999999996439 60.979999999996437 60.989999999996435 60.999999999996433 61.009999999996431 61.019999999996429 61.029999999996427 61.039999999996425 61.049999999996423 61.059999999996421 61.069999999996419 61.079999999996417 61.089999999996415 61.099999999996413 61.109999999996411 61.119999999996409 61.129999999996407 61.139999999996405 61.149999999996403 61.159999999996401 61.169999999996399 61.179999999996397 61.189999999996395 61.199999999996393 61.209999999996391 61.219999999996389 61.229999999996387 61.239999999996385 61.249999999996383 61.259999999996381 61.269999999996379 61.279999999996377 61.289999999996375 61.299999999996373 61.309999999996371 61.319999999996369 61.329999999996367 61.339999999996365 61.349999999996363 61.359999999996361 61.369999999996359 61.379999999996357 61.389999999996355 61.399999999996353 61.409999999996352 61.419999999996350 61.429999999996348 61.439999999996346 61.449999999996344 61.459999999996342 61.469999999996340 61.479999999996338 61.489999999996336 61.499999999996334 61.509999999996332 61.519999999996330 61.529999999996328 61.539999999996326 61.549999999996324 61.559999999996322 61.569999999996320 61.579999999996318 61.589999999996316 61.599999999996314 61.609999999996312 61.619999999996310 61.629999999996308 61.639999999996306 61.649999999996304 61.659999999996302 61.669999999996300 61.679999999996298 61.689999999996296 61.699999999996294 61.709999999996292 61.719999999996290 61.729999999996288 61.739999999996286 61.749999999996284 61.759999999996282 61.769999999996280 61.779999999996278 61.789999999996276 61.799999999996274 61.809999999996272 61.819999999996270 61.829999999996268 61.839999999996266 61.849999999996264 61.859999999996262 61.869999999996260 61.879999999996258 61.889999999996256 61.899999999996254 61.909999999996252 61.919999999996250 61.929999999996248 61.939999999996246 61.949999999996244 61.959999999996242 61.969999999996240 61.979999999996238 61.989999999996236 61.999999999996234 62.009999999996232 62.019999999996230 62.029999999996228 62.039999999996226 62.049999999996224 62.059999999996222 62.069999999996220 62.079999999996218 62.089999999996216 62.099999999996214 62.109999999996212 62.119999999996210 62.129999999996208 62.139999999996206 62.149999999996204 62.159999999996202 62.169999999996200 62.179999999996198 62.189999999996196 62.199999999996194 62.209999999996192 62.219999999996190 62.229999999996188 62.239999999996186 62.249999999996184 62.259999999996182 62.269999999996180 62.279999999996178 62.289999999996176 62.299999999996174 62.309999999996172 62.319999999996170 62.329999999996168 62.339999999996166 62.349999999996164 62.359999999996163 62.369999999996161 62.379999999996159 62.389999999996157 62.399999999996155 62.409999999996153 62.419999999996151 62.429999999996149 62.439999999996147 62.449999999996145 62.459999999996143 62.469999999996141 62.479999999996139 62.489999999996137 62.499999999996135 62.509999999996133 62.519999999996131 62.529999999996129 62.539999999996127 62.549999999996125 62.559999999996123 62.569999999996121 62.579999999996119 62.589999999996117 62.599999999996115 62.609999999996113 62.619999999996111 62.629999999996109 62.639999999996107 62.649999999996105 62.659999999996103 62.669999999996101 62.679999999996099 62.689999999996097 62.699999999996095 62.709999999996093 62.719999999996091 62.729999999996089 62.739999999996087 62.749999999996085 62.759999999996083 62.769999999996081 62.779999999996079 62.789999999996077 62.799999999996075 62.809999999996073 62.819999999996071 62.829999999996069 62.839999999996067 62.849999999996065 62.859999999996063 62.869999999996061 62.879999999996059 62.889999999996057 62.899999999996055 62.909999999996053 62.919999999996051 62.929999999996049 62.939999999996047 62.949999999996045 62.959999999996043 62.969999999996041 62.979999999996039 62.989999999996037 62.999999999996035 63.009999999996033 63.019999999996031 63.029999999996029 63.039999999996027 63.049999999996025 63.059999999996023 63.069999999996021 63.079999999996019 63.089999999996017 63.099999999996015 63.109999999996013 63.119999999996011 63.129999999996009 63.139999999996007 63.149999999996005 63.159999999996003 63.169999999996001 63.179999999995999 63.189999999995997 63.199999999995995 63.209999999995993 63.219999999995991 63.229999999995989 63.239999999995987 63.249999999995985 63.259999999995983 63.269999999995981 63.279999999995979 63.289999999995977 63.299999999995975 63.309999999995973 63.319999999995972 63.329999999995970 63.339999999995968 63.349999999995966 63.359999999995964 63.369999999995962 63.379999999995960 63.389999999995958 63.399999999995956 63.409999999995954 63.419999999995952 63.429999999995950 63.439999999995948 63.449999999995946 63.459999999995944 63.469999999995942 63.479999999995940 63.489999999995938 63.499999999995936 63.509999999995934 63.519999999995932 63.529999999995930 63.539999999995928 63.549999999995926 63.559999999995924 63.569999999995922 63.579999999995920 63.589999999995918 63.599999999995916 63.609999999995914 63.619999999995912 63.629999999995910 63.639999999995908 63.649999999995906 63.659999999995904 63.669999999995902 63.679999999995900 63.689999999995898 63.699999999995896 63.709999999995894 63.719999999995892 63.729999999995890 63.739999999995888 63.749999999995886 63.759999999995884 63.769999999995882 63.779999999995880 63.789999999995878 63.799999999995876 63.809999999995874 63.819999999995872 63.829999999995870 63.839999999995868 63.849999999995866 63.859999999995864 63.869999999995862 63.879999999995860 63.889999999995858 63.899999999995856 63.909999999995854 63.919999999995852 63.929999999995850 63.939999999995848 63.949999999995846 63.959999999995844 63.969999999995842 63.979999999995840 63.989999999995838 63.999999999995836 64.009999999995841 64.019999999995846 64.029999999995852 64.039999999995857 64.049999999995862 64.059999999995867 64.069999999995872 64.079999999995877 64.089999999995882 64.099999999995887 64.109999999995892 64.119999999995898 64.129999999995903 64.139999999995908 64.149999999995913 64.159999999995918 64.169999999995923 64.179999999995928 64.189999999995933 64.199999999995939 64.209999999995944 64.219999999995949 64.229999999995954 64.239999999995959 64.249999999995964 64.259999999995969 64.269999999995974 64.279999999995979 64.289999999995985 64.299999999995990 64.309999999995995 64.319999999996000 64.329999999996005 64.339999999996010 64.349999999996015 64.359999999996020 64.369999999996026 64.379999999996031 64.389999999996036 64.399999999996041 64.409999999996046 64.419999999996051 64.429999999996056 64.439999999996061 64.449999999996066 64.459999999996072 64.469999999996077 64.479999999996082 64.489999999996087 64.499999999996092 64.509999999996097 64.519999999996102 64.529999999996107 64.539999999996112 64.549999999996118 64.559999999996123 64.569999999996128 64.579999999996133 64.589999999996138 64.599999999996143 64.609999999996148 64.619999999996153 64.629999999996159 64.639999999996164 64.649999999996169 64.659999999996174 64.669999999996179 64.679999999996184 64.689999999996189 64.699999999996194 64.709999999996199 64.719999999996205 64.729999999996210 64.739999999996215 64.749999999996220 64.759999999996225 64.769999999996230 64.779999999996235 64.789999999996240 64.799999999996245 64.809999999996251 64.819999999996256 64.829999999996261 64.839999999996266 64.849999999996271 64.859999999996276 64.869999999996281 64.879999999996286 64.889999999996292 64.899999999996297 64.909999999996302 64.919999999996307 64.929999999996312 64.939999999996317 64.949999999996322 64.959999999996327 64.969999999996332 64.979999999996338 64.989999999996343 64.999999999996348 65.009999999996353 65.019999999996358 65.029999999996363 65.039999999996368 65.049999999996373 65.059999999996379 65.069999999996384 65.079999999996389 65.089999999996394 65.099999999996399 65.109999999996404 65.119999999996409 65.129999999996414 65.139999999996419 65.149999999996425 65.159999999996430 65.169999999996435 65.179999999996440 65.189999999996445 65.199999999996450 65.209999999996455 65.219999999996460 65.229999999996465 65.239999999996471 65.249999999996476 65.259999999996481 65.269999999996486 65.279999999996491 65.289999999996496 65.299999999996501 65.309999999996506 65.319999999996512 65.329999999996517 65.339999999996522 65.349999999996527 65.359999999996532 65.369999999996537 65.379999999996542 65.389999999996547 65.399999999996552 65.409999999996558 65.419999999996563 65.429999999996568 65.439999999996573 65.449999999996578 65.459999999996583 65.469999999996588 65.479999999996593 65.489999999996598 65.499999999996604 65.509999999996609 65.519999999996614 65.529999999996619 65.539999999996624 65.549999999996629 65.559999999996634 65.569999999996639 65.579999999996645 65.589999999996650 65.599999999996655 65.609999999996660 65.619999999996665 65.629999999996