# vtk DataFile Version 3.0
example
ASCII
DATASET STRUCTURED_POINTS
DIMENSIONS 50 50 1
ORIGIN -5 -5 0
SPACING 0.1 0.1 0.1
POINT_DATA 2500
SCALARS example  float 1
LOOKUP_TABLE default
-0.9589242746631385
-0.9717244849321957
-0.9818772350691545
-0.9895686956377806
-0.9949946980158766
-0.9983584016829591
-0.999868017366642
-0.999734606023729
-0.9981699711583161
-0.995384659337833
-0.9915860810139135
-0.9869767609470285
-0.9817527247334962
-0.9761020252038513
-0.970203409865673
-0.9642251281632545
-0.958323875178786
-0.9526438665573796
-0.9473160379460669
-0.9424573611301785
-0.9381702683532772
-0.9345421760302878
-0.9316450992050267
-0.9295353486458332
-0.9282533033849449
-0.9278232527433043
-0.9282533033849449
-0.9295353486458332
-0.9316450992050269
-0.9345421760302878
-0.9381702683532772
-0.9424573611301785
-0.9473160379460666
-0.9526438665573796
-0.958323875178786
-0.9642251281632545
-0.9702034098656732
-0.9761020252038513
-0.9817527247334962
-0.9869767609470285
-0.9915860810139135
-0.995384659337833
-0.9981699711583161
-0.999734606023729
-0.999868017366642
-0.9983584016829591
-0.9949946980158765
-0.9895686956377806
-0.9818772350691543
-0.9717244849321957
-0.9717244849321957
-0.9824526126243325
-0.9904401836101221
-0.9958864029909648
-0.9990006307900765
-0.9999999353127056
-0.9991067054787017
-0.9965463437858124
-0.992545058953352
-0.9873277744809443
-0.9811161663923375
-0.9741268403812225
-0.9665696555000248
-0.9586461985020936
-0.9505484100323036
-0.9424573611301785
-0.9345421760302881
-0.9269590950793642
-0.9198506697939808
-0.9133450807031779
-0.9075555676920548
-0.9025799621065002
-0.8985003099021969
-0.8953825756127604
-0.8932764178455856
-0.8922150283464432
-0.8922150283464432
-0.8932764178455856
-0.8953825756127604
-0.8985003099021969
-0.9025799621065005
-0.9075555676920548
-0.9133450807031779
-0.9198506697939808
-0.9269590950793642
-0.9345421760302881
-0.9424573611301788
-0.950548410032304
-0.9586461985020939
-0.9665696555000248
-0.9741268403812225
-0.9811161663923376
-0.9873277744809443
-0.992545058953352
-0.9965463437858125
-0.9991067054787017
-0.9999999353127056
-0.9990006307900765
-0.9958864029909648
-0.9904401836101221
-0.9818772350691545
-0.9904401836101221
-0.9961646088358407
-0.9992627941726555
-0.999957693417757
-0.9984803642794092
-0.9950674637915443
-0.9899588291354213
-0.9833951646719971
-0.9756158530105189
-0.9668569047686132
-0.9573490583799588
-0.9473160379460666
-0.9369729737816812
-0.9265249870447926
-0.9161659367494549
-0.9060773246089553
-0.8964273506217209
-0.8873701101602708
-0.8790449216136164
-0.8715757724135882
-0.8650708705796155
-0.8596222887621537
-0.8553056881520036
-0.8521801105317162
-0.8502878281373779
-0.849654242816637
-0.8502878281373779
-0.8521801105317162
-0.8553056881520036
-0.8596222887621537
-0.8650708705796155
-0.8715757724135882
-0.8790449216136164
-0.8873701101602708
-0.8964273506217209
-0.9060773246089557
-0.9161659367494549
-0.9265249870447922
-0.9369729737816812
-0.9473160379460666
-0.9573490583799588
-0.9668569047686132
-0.9756158530105189
-0.9833951646719971
-0.9899588291354212
-0.9950674637915443
-0.9984803642794092
-0.999957693417757
-0.9992627941726555
-0.9895686956377806
-0.9958864029909648
-0.9992627941726555
-0.9999232575641008
-0.998104390961072
-0.9940513088687184
-0.9880150142111556
-0.9802498600608358
-0.9710111241633097
-0.960552715907648
-0.9491250320280458
-0.9369729737816812
-0.9243341347024407
-0.911437164356176
-0.8985003099021965
-0.8857301337822531
-0.8733204025981488
-0.8614511392867945
-0.8502878281373784
-0.8399807600925623
-0.8306645041968926
-0.8224574900497631
-0.8154616857194003
-0.809762355790845
-0.805427885045997
-0.8025096546759855
-0.8010419598516445
-0.8010419598516445
-0.8025096546759855
-0.805427885045997
-0.809762355790845
-0.8154616857194003
-0.8224574900497631
-0.8306645041968926
-0.8399807600925623
-0.8502878281373779
-0.8614511392867945
-0.8733204025981484
-0.8857301337822531
-0.8985003099021969
-0.9114371643561764
-0.9243341347024411
-0.9369729737816815
-0.9491250320280458
-0.960552715907648
-0.9710111241633097
-0.980249860060836
-0.9880150142111556
-0.9940513088687185
-0.998104390961072
-0.9949946980158766
-0.9990006307900765
-0.999957693417757
-0.998104390961072
-0.9936910036334644
-0.9869767609470285
-0.9782270822821499
-0.9677109117567847
-0.9556981723682721
-0.9424573611301785
-0.9282533033849449
-0.9133450807031775
-0.8979841428535832
-0.8824126103228117
-0.866861769867531
-0.8515507616830281
-0.8366854530680093
-0.8224574900497627
-0.8090435154010285
-0.7966045389183554
-0.7852854438206655
-0.7752146117325301
-0.7665036479887319
-0.7592471889638359
-0.7535227737981605
-0.7493907642395048
-0.746894298301673
-0.7460592659837405
-0.7468942983016733
-0.7493907642395048
-0.7535227737981605
-0.7592471889638359
-0.7665036479887319
-0.7752146117325301
-0.7852854438206655
-0.7966045389183554
-0.8090435154010285
-0.8224574900497627
-0.8366854530680088
-0.8515507616830281
-0.866861769867531
-0.8824126103228117
-0.8979841428535832
-0.9133450807031775
-0.9282533033849449
-0.9424573611301782
-0.9556981723682724
-0.9677109117567849
-0.9782270822821499
-0.9869767609470285
-0.9983584016829591
-0.9999999353127056
-0.9984803642794092
-0.9940513088687184
-0.9869767609470285
-0.977530117665097
-0.9659912828679067
-0.9526438665573794
-0.9377725098060179
-0.9216603591725605
-0.9045867109767788
-0.8868248418105852
-0.8686400374670266
-0.8502878281373775
-0.832012433347783
-0.8140454157770366
-0.7966045389183554
-0.779892819626595
-0.7640977630352702
-0.749390764239505
-0.7359266586191393
-0.7238434008069089
-0.7132618511599095
-0.7042856482174848
-0.6970011460493879
-0.6914773966101274
-0.6877661591839738
-0.6859019216642186
-0.6859019216642186
-0.6877661591839734
-0.6914773966101274
-0.6970011460493879
-0.7042856482174845
-0.7132618511599095
-0.7238434008069086
-0.7359266586191393
-0.749390764239505
-0.7640977630352697
-0.779892819626595
-0.7966045389183554
-0.8140454157770366
-0.8320124333477834
-0.8502878281373779
-0.8686400374670266
-0.8868248418105852
-0.9045867109767788
-0.9216603591725605
-0.9377725098060182
-0.9526438665573796
-0.9659912828679069
-0.999868017366642
-0.9991067054787017
-0.9950674637915443
-0.9880150142111556
-0.9782270822821499
-0.9659912828679067
-0.951602073889516
-0.9353578111277199
-0.9175579341357317
-0.8985003099021969
-0.8784787570896037
-0.857780769511336
-0.8366854530680098
-0.8154616857194003
-0.7943665053113693
-0.7736437253072124
-0.7535227737981608
-0.7342177467037869
-0.7159266619396235
-0.6988308976469535
-0.6830947944654516
-0.6688653993912619
-0.6562723270950734
-0.645427713750201
-0.6364262384873796
-0.6293451885677936
-0.624244546231216
-0.6211670778780358
-0.6201384096918018
-0.6211670778780362
-0.624244546231216
-0.6293451885677936
-0.6364262384873796
-0.645427713750201
-0.6562723270950734
-0.6688653993912619
-0.6830947944654516
-0.6988308976469542
-0.7159266619396233
-0.7342177467037873
-0.753522773798161
-0.7736437253072129
-0.7943665053113699
-0.8154616857194003
-0.8366854530680098
-0.857780769511336
-0.8784787570896041
-0.8985003099021969
-0.9175579341357321
-0.9353578111277202
-0.999734606023729
-0.9965463437858124
-0.9899588291354213
-0.9802498600608358
-0.9677109117567847
-0.9526438665573794
-0.9353578111277199
-0.9161659367494549
-0.8953825756127599
-0.8733204025981484
-0.8502878281373775
-0.8265866034352032
-0.8025096546759855
-0.7783391579064016
-0.7543448611654876
-0.7307826552261091
-0.7078933891299846
-0.6859019216642183
-0.6650163951720419
-0.6454277137502
-0.6273092040967685
-0.6108164341678977
-0.5960871625005434
-0.5832413896626933
-0.5723814828797766
-0.5635923455002049
-0.556941604610979
-0.5524797927606163
-0.5502405033121854
-0.5502405033121859
-0.5524797927606163
-0.5569416046109786
-0.5635923455002049
-0.5723814828797766
-0.583241389662693
-0.5960871625005434
-0.6108164341678977
-0.6273092040967685
-0.6454277137502004
-0.6650163951720419
-0.6859019216642183
-0.7078933891299849
-0.7307826552261091
-0.7543448611654879
-0.7783391579064016
-0.8025096546759855
-0.8265866034352037
-0.8502878281373779
-0.8733204025981484
-0.8953825756127599
-0.9981699711583161
-0.992545058953352
-0.9833951646719971
-0.9710111241633097
-0.9556981723682721
-0.9377725098060179
-0.9175579341357317
-0.8953825756127599
-0.8715757724135882
-0.8464651184017659
-0.8203737119796204
-0.7936176302633863
-0.7665036479887319
-0.7393272153690101
-0.7123707036733671
-0.6859019216642186
-0.660172900346384
-0.6354189378606768
-0.6118578909427193
-0.5896896943131508
-0.5690960848238397
-0.5502405033121859
-0.5332681440614913
-0.5183061196643188
-0.5054637080490977
-0.4948326485370225
-0.48648745508524077
-0.4804857173352129
-0.4768683636625052
-0.4756598650043619
-0.4768683636625048
-0.4804857173352129
-0.48648745508524077
-0.4948326485370229
-0.5054637080490977
-0.5183061196643188
-0.5332681440614917
-0.5502405033121854
-0.5690960848238397
-0.5896896943131511
-0.6118578909427193
-0.6354189378606768
-0.6601729003463843
-0.6859019216642186
-0.7123707036733674
-0.7393272153690101
-0.7665036479887325
-0.7936176302633863
-0.8203737119796204
-0.8464651184017659
-0.995384659337833
-0.9873277744809443
-0.9756158530105189
-0.960552715907648
-0.9424573611301785
-0.9216603591725605
-0.8985003099021969
-0.8733204025981484
-0.8464651184017659
-0.8182771110644103
-0.7890942979707938
-0.7592471889638359
-0.729056475546293
-0.6988308976469535
-0.6688653993912616
-0.6394395793002625
-0.6108164341678977
-0.583241389662693
-0.556941604610979
-0.5321255301055576
-0.5089826992189167
-0.4876837183632202
-0.4683804274098636
-0.45120619272974544
-0.4362762954928886
-0.42368837699373463
-0.4135229035263426
-0.405843615450995
-0.4006979285410928
-0.39811726038474443
-0.39811726038474404
-0.4006979285410924
-0.405843615450995
-0.4135229035263422
-0.42368837699373463
-0.4362762954928886
-0.45120619272974544
-0.4683804274098636
-0.48768371836321983
-0.5089826992189171
-0.5321255301055576
-0.556941604610979
-0.5832413896626933
-0.6108164341678977
-0.6394395793002625
-0.6688653993912616
-0.6988308976469538
-0.729056475546293
-0.7592471889638359
-0.7890942979707938
-0.9915860810139135
-0.9811161663923375
-0.9668569047686132
-0.9491250320280458
-0.9282533033849449
-0.9045867109767788
-0.8784787570896037
-0.8502878281373775
-0.8203737119796204
-0.7890942979707938
-0.7568024953079282
-0.7238434008069089
-0.6905517422302143
-0.6572496177605014
-0.6242445462312156
-0.5918278363708653
-0.5602732766945235
-0.5298361409084934
-0.5007524969275404
-0.47323880100565235
-0.44749175223692067
-0.423688376993735
-0.4019863079440175
-0.3825242183357893
-0.3654223694517812
-0.35078322768961984
-0.3386921077455543
-0.32921779995026845
-0.3224131429379352
-0.31831550746538184
-0.31694716320128224
-0.31831550746538223
-0.3224131429379348
-0.32921779995026845
-0.3386921077455543
-0.35078322768961984
-0.36542236945178164
-0.3825242183357893
-0.40198630794401713
-0.423688376993735
-0.44749175223692067
-0.47323880100565235
-0.5007524969275404
-0.5298361409084934
-0.5602732766945239
-0.5918278363708653
-0.624244546231216
-0.6572496177605014
-0.6905517422302146
-0.7238434008069089
-0.9869767609470285
-0.9741268403812225
-0.9573490583799588
-0.9369729737816812
-0.9133450807031775
-0.8868248418105852
-0.857780769511336
-0.8265866034352032
-0.7936176302633863
-0.7592471889638359
-0.7238434008069089
-0.6877661591839738
-0.6513644092590593
-0.6149737418880581
-0.5789143200944556
-0.5434891497654549
-0.5089826992189164
-0.4756598650043619
-0.44376527388065834
-0.4135229035263422
-0.3851359973794745
-0.3587872422900789
-0.334639171635505
-0.3128347514428968
-0.29349810312694047
-0.2767353139115072
-0.262635285053548
-0.2512705687677281
-0.24269814733365017
-0.23696011224464816
-0.2340842073270745
-0.2340842073270745
-0.23696011224464816
-0.24269814733365017
-0.2512705687677277
-0.26263528505354844
-0.27673531391150674
-0.29349810312694047
-0.3128347514428968
-0.334639171635505
-0.35878724229007936
-0.3851359973794745
-0.4135229035263422
-0.44376527388065795
-0.4756598650043623
-0.5089826992189167
-0.5434891497654549
-0.578914320094456
-0.6149737418880581
-0.6513644092590593
-0.9817527247334962
-0.9665696555000248
-0.9473160379460666
-0.9243341347024407
-0.8979841428535832
-0.8686400374670266
-0.8366854530680098
-0.8025096546759855
-0.7665036479887319
-0.729056475546293
-0.6905517422302143
-0.6513644092590593
-0.6118578909427189
-0.572381482879777
-0.5332681440614913
-0.4948326485370225
-0.4573701149720525
-0.4211549146964651
-0.38643995081441934
-0.35345629280203994
-0.3224131429379348
-0.2934981031269409
-0.2668777034450826
-0.24269814733365017
-0.22108622309389528
-0.2021503274683914
-0.18598154490406477
-0.17265472579333352
-0.16222950873330788
-0.15475123568918905
-0.1502517148518289
-0.14874979378109765
-0.15025171485182934
-0.15475123568918905
-0.16222950873330833
-0.17265472579333352
-0.18598154490406432
-0.2021503274683914
-0.22108622309389572
-0.24269814733365017
-0.2668777034450826
-0.29349810312694047
-0.3224131429379348
-0.35345629280203994
-0.38643995081441934
-0.4211549146964651
-0.4573701149720529
-0.4948326485370225
-0.5332681440614913
-0.5723814828797766
-0.9761020252038513
-0.9586461985020936
-0.9369729737816812
-0.911437164356176
-0.8824126103228117
-0.8502878281373775
-0.8154616857194003
-0.7783391579064016
-0.7393272153690101
-0.6988308976469535
-0.6572496177605014
-0.6149737418880581
-0.572381482879777
-0.5298361409084934
-0.4876837183632202
-0.44625092920168796
-0.405843615450995
-0.36674557545780667
-0.32921779995026845
-0.29349810312694047
-0.2598011270177786
-0.22831868849536052
-0.19922042982058494
-0.17265472579333352
-0.1487497937810972
-0.12761494746662
-0.10934193143095142
-0.0940062719792265
-0.0816685801691643
-0.07237574597150576
-0.06616196791516919
-0.06304957034950845
-0.06304957034950845
-0.06616196791516919
-0.07237574597150576
-0.08166858016916387
-0.0940062719792265
-0.10934193143095097
-0.12761494746662
-0.14874979378109765
-0.17265472579333394
-0.19922042982058494
-0.22831868849536097
-0.2598011270177786
-0.2934981031269409
-0.32921779995026845
-0.3667455754578071
-0.40584361545099545
-0.44625092920168874
-0.4876837183632206
-0.970203409865673
-0.9505484100323036
-0.9265249870447926
-0.8985003099021965
-0.866861769867531
-0.832012433347783
-0.7943665053113693
-0.7543448611654876
-0.7123707036733671
-0.6688653993912616
-0.6242445462312156
-0.5789143200944556
-0.5332681440614913
-0.4876837183632202
-0.4425204432948521
-0.39811726038474404
-0.3547909295230998
-0.31283475144289635
-0.2725177360087394
-0.23408420732707363
-0.19775382690628338
-0.16372200618155414
-0.13216066994586043
-0.10321932291814055
-0.07702636320494378
-0.05369057918026166
-0.03330276074308697
-0.01593735242333426
-0.0016540747562997246
0.009500557989809004
0.017491891116227322
0.022296013809794082
0.023898924368247573
0.022296013809794082
0.017491891116227322
0.009500557989809004
-0.0016540747562997246
-0.015937352423334702
-0.033302760743086524
-0.05369057918026166
-0.07702636320494378
-0.10321932291814055
-0.13216066994586043
-0.1637220061815537
-0.19775382690628338
-0.23408420732707405
-0.2725177360087394
-0.3128347514428968
-0.3547909295230998
-0.39811726038474365
-0.9642251281632545
-0.9424573611301785
-0.9161659367494549
-0.8857301337822531
-0.8515507616830281
-0.8140454157770366
-0.7736437253072124
-0.7307826552261091
-0.6859019216642186
-0.6394395793002625
-0.5918278363708653
-0.5434891497654549
-0.4948326485370225
-0.44625092920168796
-0.39811726038474404
-0.35078322768961984
-0.3045768421222355
-0.259801127017779
-0.21673318923734522
-0.17562377051126346
-0.13669726433346402
-0.10015217294290704
-0.06616196791516919
-0.034876307052259595
-0.00642254999470622
0.01909249425699469
0.041580662433290935
0.060970454883675355
0.07720505956880348
0.09024046561798839
0.10004374679370173
0.10659158867117019
0.10986912346008945
0.10986912346008945
0.10659158867117019
0.10004374679370173
0.09024046561798839
0.07720505956880348
0.060970454883675355
0.04158066243329049
0.01909249425699469
-0.00642254999470622
-0.03487630705226004
-0.06616196791516875
-0.10015217294290747
-0.13669726433346402
-0.17562377051126346
-0.21673318923734522
-0.259801127017779
-0.30457684212223596
-0.958323875178786
-0.9345421760302881
-0.9060773246089553
-0.8733204025981488
-0.8366854530680093
-0.7966045389183554
-0.7535227737981608
-0.7078933891299846
-0.660172900346384
-0.6108164341678977
-0.5602732766945235
-0.5089826992189164
-0.4573701149720525
-0.405843615450995
-0.3547909295230998
-0.3045768421222355
-0.2555411020268312
-0.20799683992465798
-0.16222950873330788
-0.1184963479972359
-0.07702636320494423
-0.03802079920450441
-0.0016540747562997246
0.03192486705235105
0.0625908499028356
0.09024046561798839
0.11478986470492154
0.13617242319577877
0.15433637861822244
0.16924253049810617
0.18086209973237408
0.18917483613716812
0.19416745436987418
0.19583246541441268
0.19416745436987373
0.18917483613716768
0.18086209973237408
0.16924253049810617
0.15433637861822289
0.13617242319577832
0.11478986470492154
0.09024046561798839
0.06259084990283516
0.03192486705235105
-0.0016540747562997246
-0.03802079920450441
-0.07702636320494423
-0.11849634799723635
-0.16222950873330788
-0.2079968399246584
-0.9526438665573796
-0.9269590950793642
-0.8964273506217209
-0.8614511392867945
-0.8224574900497627
-0.779892819626595
-0.7342177467037869
-0.6859019216642183
-0.6354189378606768
-0.583241389662693
-0.5298361409084934
-0.4756598650043619
-0.4211549146964651
-0.36674557545780667
-0.31283475144289635
-0.259801127017779
-0.20799683992465798
-0.1577456941432482
-0.10934193143095142
-0.06304957034950845
-0.019102310341923518
0.022296013809794082
0.0609704548836758
0.09677349486531153
0.12958316061406003
0.15930078243726242
0.18584847721473302
0.20916644888991087
0.22921020795597818
0.24594781721741688
0.25935727286343263
0.26942412716152203
0.2761394515176048
0.2794982262198743
0.2794982262198743
0.2761394515176048
0.26942412716152203
0.25935727286343263
0.24594781721741643
0.22921020795597818
0.20916644888991087
0.18584847721473302
0.15930078243726287
0.12958316061406047
0.09677349486531153
0.0609704548836758
0.02229601380979364
-0.019102310341923074
-0.06304957034950845
-0.10934193143095097
-0.9473160379460669
-0.9198506697939808
-0.8873701101602708
-0.8502878281373784
-0.8090435154010285
-0.7640977630352702
-0.7159266619396235
-0.6650163951720419
-0.6118578909427193
-0.556941604610979
-0.5007524969275404
-0.44376527388065834
-0.38643995081441934
-0.32921779995026845
-0.2725177360087394
-0.21673318923734522
-0.16222950873330788
-0.10934193143095142
-0.058374143427580086
-0.009597450383300713
0.036749437491208944
0.0804600128454557
0.1213589916917732
0.15930078243726242
0.1941674543698733
0.2258662723113848
0.2543268796312631
0.2794982262198734
0.3013453504378891
0.31984613349438645
0.33498815015590466
0.34676574024944984
0.3551774204119109
0.36022374461492085
0.36190570525348137
0.36022374461492085
0.3551774204119109
0.3467657402494494
0.33498815015590466
0.31984613349438645
0.3013453504378891
0.2794982262198734
0.25432687963126266
0.2258662723113848
0.1941674543698733
0.15930078243726242
0.1213589916917732
0.0804600128454557
0.0367494374912085
-0.009597450383301157
-0.9424573611301785
-0.9133450807031779
-0.8790449216136164
-0.8399807600925623
-0.7966045389183554
-0.749390764239505
-0.6988308976469535
-0.6454277137502
-0.5896896943131508
-0.5321255301055576
-0.47323880100565235
-0.4135229035263422
-0.35345629280203994
-0.29349810312694047
-0.23408420732707363
-0.17562377051126346
-0.1184963479972359
-0.06304957034950845
-0.009597450383300713
0.041580662433290935
0.09024046561798839
0.13617242319577877
0.17920083290743252
0.21918226837231553
0.2560034402503822
0.2895785381892614
0.3198461334943869
0.3467657402494502
0.3703141490481177
0.3904816614002812
0.40726836296464086
0.4206805787629131
0.43072765234108057
0.4374191826826968
0.44076283726104404
0.44076283726104404
0.4374191826826968
0.43072765234108096
0.4206805787629131
0.40726836296464086
0.3904816614002812
0.3703141490481173
0.3467657402494502
0.3198461334943869
0.2895785381892614
0.2560034402503822
0.21918226837231508
0.17920083290743252
0.13617242319577832
0.09024046561798839
-0.9381702683532772
-0.9075555676920548
-0.8715757724135882
-0.8306645041968926
-0.7852854438206655
-0.7359266586191393
-0.6830947944654516
-0.6273092040967685
-0.5690960848238397
-0.5089826992189167
-0.44749175223692067
-0.3851359973794745
-0.3224131429379348
-0.2598011270177786
-0.19775382690628338
-0.13669726433346402
-0.07702636320494423
-0.019102310341923518
0.036749437491208944
0.09024046561798839
0.1411200080598672
0.18917483613716768
0.23422843022513692
0.2761394515176048
0.31479954823884526
0.3501305500284013
0.38208112477623063
0.4106229933058497
0.4357468179879573
0.4574579003165465
0.4757718381527513
0.49071030407082394
0.5022971104044588
0.5105547228341902
0.5155013718214642
0.5171488897344491
0.5155013718214642
0.5105547228341899
0.5022971104044583
0.49071030407082394
0.4757718381527513
0.4574579003165465
0.4357468179879573
0.4106229933058497
0.38208112477623063
0.3501305500284013
0.3147995482388449
0.2761394515176044
0.23422843022513692
0.18917483613716768
-0.9345421760302878
-0.9025799621065002
-0.8650708705796155
-0.8224574900497631
-0.7752146117325301
-0.7238434008069089
-0.6688653993912619
-0.6108164341678977
-0.5502405033121859
-0.4876837183632202
-0.423688376993735
-0.3587872422900789
-0.2934981031269409
-0.22831868849536052
-0.16372200618155414
-0.10015217294290704
-0.03802079920450441
0.022296013809794082
0.0804600128454557
0.13617242319577877
0.18917483613716768
0.23924932921398243
0.28621780838134137
0.329940576326806
0.3703141490481173
0.4072683629646404
0.44076283726104365
0.47078288027349324
0.4973349536253862
0.520441832177959
0.540137619952711
0.5564627999606087
0.5694595071463926
0.579167216348212
0.5856190296379012
0.5888387287588758
0.5888387287588758
0.5856190296379012
0.579167216348212
0.5694595071463926
0.5564627999606087
0.540137619952711
0.5204418321779586
0.4973349536253866
0.47078288027349324
0.44076283726104365
0.40726836296464003
0.37031414904811694
0.329940576326806
0.28621780838134137
-0.9316450992050267
-0.8985003099021969
-0.8596222887621537
-0.8154616857194003
-0.7665036479887319
-0.7132618511599095
-0.6562723270950734
-0.5960871625005434
-0.5332681440614913
-0.4683804274098636
-0.4019863079440175
-0.334639171635505
-0.2668777034450826
-0.19922042982058494
-0.13216066994586043
-0.06616196791516919
-0.0016540747562997246
0.0609704548836758
0.1213589916917732
0.17920083290743252
0.23422843022513692
0.28621780838134137
0.3349881501559051
0.3804005377780389
0.422355857866483
0.4607918973047853
0.4956796809138867
0.5270191281899916
0.5548341350573027
0.5791672163482127
0.6000738737913107
0.6176168803250789
0.6318606918079231
0.6428662087577938
0.6506861109609594
0.6553609746764614
0.6569163549247179
0.6553609746764614
0.6506861109609594
0.6428662087577938
0.6318606918079231
0.6176168803250789
0.6000738737913107
0.5791672163482123
0.5548341350573024
0.5270191281899916
0.4956796809138863
0.4607918973047853
0.42235585786648255
0.3804005377780389
-0.9295353486458332
-0.8953825756127604
-0.8553056881520036
-0.809762355790845
-0.7592471889638359
-0.7042856482174848
-0.645427713750201
-0.5832413896626933
-0.5183061196643188
-0.45120619272974544
-0.3825242183357893
-0.3128347514428968
-0.24269814733365017
-0.17265472579333352
-0.10321932291814055
-0.034876307052259595
0.03192486705235105
0.09677349486531153
0.15930078243726242
0.21918226837231553
0.2761394515176048
0.329940576326806
0.3804005377780389
0.42737988023383017
0.47078288027349363
0.5105547228341899
0.5466778033719653
0.5791672163482123
0.6080655218911003
0.6334369171129026
0.6553609746764614
0.6739261463676083
0.6892232604407675
0.7013392646067887
0.7103514778411854
0.7163226102895175
0.7192967891640345
0.7192967891640348
0.7163226102895178
0.7103514778411854
0.7013392646067887
0.6892232604407672
0.6739261463676083
0.6553609746764617
0.6334369171129023
0.6080655218911003
0.5791672163482123
0.5466778033719648
0.5105547228341899
0.47078288027349363
-0.9282533033849449
-0.8932764178455856
-0.8521801105317162
-0.805427885045997
-0.7535227737981605
-0.6970011460493879
-0.6364262384873796
-0.5723814828797766
-0.5054637080490977
-0.4362762954928886
-0.3654223694517812
-0.29349810312694047
-0.22108622309389528
-0.1487497937810972
-0.07702636320494378
-0.00642254999470622
0.0625908499028356
0.12958316061406003
0.1941674543698733
0.2560034402503822
0.31479954823884526
0.3703141490481173
0.422355857866483
0.47078288027349363
0.5155013718214645
0.5564627999606087
0.5936603188902636
0.6271241951810179
0.6569163549247179
0.6831241614378807
0.7058535750305787
0.7252218908508432
0.7413502939397737
0.7543565079155635
0.7643478399612077
0.7714149347937005
0.7756265396891269
0.7770255489515228
0.7756265396891269
0.7714149347937005
0.7643478399612077
0.7543565079155635
0.7413502939397737
0.7252218908508432
0.7058535750305787
0.6831241614378807
0.6569163549247179
0.6271241951810179
0.5936603188902636
0.5564627999606087
-0.9278232527433043
-0.8922150283464432
-0.8502878281373779
-0.8025096546759855
-0.7493907642395048
-0.6914773966101274
-0.6293451885677936
-0.5635923455002049
-0.4948326485370225
-0.42368837699373463
-0.35078322768961984
-0.2767353139115072
-0.2021503274683914
-0.12761494746662
-0.05369057918026166
0.01909249425699469
0.09024046561798839
0.15930078243726242
0.2258662723113848
0.2895785381892614
0.3501305500284013
0.4072683629646404
0.4607918973047853
0.5105547228341899
0.5564627999606087
0.5984721441039565
0.6365853986336792
0.6708473267124143
0.7013392646067887
0.7281726188864701
0.7514815371342608
0.7714149347937005
0.7881281164894011
0.8017742837642954
0.8124962663523009
0.8204188436010451
0.8256420294115462
0.8282356726083816
0.8282356726083816
0.8256420294115459
0.8204188436010451
0.8124962663523007
0.801774283764295
0.7881281164894008
0.7714149347937002
0.7514815371342608
0.7281726188864698
0.7013392646067887
0.670847326712414
0.6365853986336789
-0.9282533033849449
-0.8922150283464432
-0.849654242816637
-0.8010419598516445
-0.746894298301673
-0.6877661591839738
-0.624244546231216
-0.556941604610979
-0.48648745508524077
-0.4135229035263426
-0.3386921077455543
-0.262635285053548
-0.18598154490406477
-0.10934193143095142
-0.03330276074308697
0.041580662433290935
0.11478986470492154
0.18584847721473302
0.2543268796312631
0.3198461334943869
0.38208112477623063
0.44076283726104365
0.4956796809138867
0.5466778033719653
0.5936603188902636
0.6365853986336792
0.675463180551151
0.7103514778411854
0.7413502939397737
0.7685951905328932
0.7922496041756332
0.8124962663523009
0.8295279491007487
0.8435378292046529
0.854709831472877
0.8632093666488737
0.8691749117900276
0.8727108809648598
0.8738821951802462
0.8727108809648598
0.8691749117900276
0.8632093666488737
0.8547098314728768
0.8435378292046529
0.829527949100749
0.8124962663523009
0.7922496041756332
0.7685951905328932
0.7413502939397735
0.710351477841185
-0.9295353486458332
-0.8932764178455856
-0.8502878281373779
-0.8010419598516445
-0.7460592659837405
-0.6859019216642186
-0.6211670778780358
-0.5524797927606163
-0.4804857173352129
-0.405843615450995
-0.32921779995026845
-0.2512705687677281
-0.17265472579333352
-0.0940062719792265
-0.01593735242333426
0.060970454883675355
0.13617242319577877
0.20916644888991087
0.2794982262198734
0.3467657402494502
0.4106229933058497
0.47078288027349324
0.5270191281899916
0.5791672163482123
0.6271241951810179
0.6708473267124143
0.7103514778411854
0.7457052121767203
0.7770255489515224
0.8044713912388782
0.8282356726083816
0.8485363328622801
0.865606309265183
0.8796828166633776
0.8909962815578323
0.8997593812698325
0.9061567064542514
0.9103355987643117
0.9123987025638413
0.9123987025638413
0.9103355987643117
0.9061567064542514
0.8997593812698325
0.8909962815578323
0.8796828166633773
0.865606309265183
0.8485363328622801
0.8282356726083816
0.804471391238878
0.7770255489515228
-0.9316450992050269
-0.8953825756127604
-0.8521801105317162
-0.8025096546759855
-0.7468942983016733
-0.6859019216642186
-0.6201384096918018
-0.5502405033121854
-0.4768683636625052
-0.4006979285410928
-0.3224131429379352
-0.24269814733365017
-0.16222950873330788
-0.0816685801691643
-0.0016540747562997246
0.07720505956880348
0.15433637861822244
0.22921020795597818
0.3013453504378891
0.3703141490481177
0.4357468179879573
0.4973349536253862
0.5548341350573027
0.6080655218911003
0.6569163549247179
0.7013392646067887
0.7413502939397737