# vtk DataFile Version 3.0
example
ASCII
DATASET POLYDATA
POINTS 100 float
0.164 0.961 0.877
0.851 0.941 0.055
0.23 0.206 0.907
0.091 0.763 0.516
0.111 0.201 0.597
0.832 0.596 0.45
0.598 0.447 0.771
0.376 0.562 0.717
0.764 0.429 0.191
0.695 0.726 0.582
0.564 0.307 0.679
0.972 0.121 0.106
0.225 0.505 0.204
0.516 0.612 0.986
0.061 0.572 0.441
0.88 0.288 0.569
0.271 0.584 0.482
0.266 0.089 0.721
0.591 0.582 0.777
0.338 0.429 0.097
0.982 0.22 0.858
0.958 0.746 0.15
0.599 0.721 0.441
0.308 0.382 0.059
0.861 0.81 0.109
0.882 0.047 0.176
0.938 0.517 0.198
0.905 0.753 0.438
0.687 0.305 0.618
0.965 0.753 0.705
0.099 0.725 0.643
0.262 0.143 0.71
0.262 0.33 0.451
0.61 0.674 0.761
0.257 0.879 0.453
0.147 0.563 0.945
0.829 0.744 0.008
0.713 0.121 0.375
0.948 0.028 0.23
0.228 0.31 0.918
0.58 0.037 0.897
0.606 0.932 0.913
0.996 0.459 0.626
0.496 0.057 0.927
0.517 0.009 0.737
0.546 0.019 0.223
0.636 0.017 0.808
0.723 0.28 0.199
0.769 0.403 0.602
0.513 0.818 0.41
0.184 0.749 0.088
0.322 0.845 0.889
0.872 0.145 0.344
0.636 0.505 0.094
0.268 0.615 0.349
0.532 0.926 0.648
0.012 0.527 0.059
0.299 0.534 0.577
0.816 0.086 0.293
0.394 0.728 0.378
0.287 0.458 0.973
0.588 0.766 0.347
0.387 0.817 0.583
0.752 0.964 0.358
0.641 0.372 0.924
0.371 0.133 0.559
0.483 0.51 0.269
0.254 0.541 0.252
0.802 0.701 0.804
0.521 0.379 0.288
0.593 0.967 0.359
0.11 0.301 0.482
0.998 0.778 0.881
0.685 0.647 0.121
0.214 0.02 0.173
0.436 0.318 0.024
0.062 0.741 0.999
0.478 0.468 0.795
0.389 0.686 0.037
0.132 0.457 0.732
0.164 0.084 0.903
0.27 0.48 0.713
0.173 0.931 0.73
0.434 0.131 0.948
0.099 0.842 0.139
0.617 0.253 0.423
0.057 0.476 0.127
0.452 0.671 0.962
0.436 0.647 0.554
0.357 0.57 0.945
0.228 0.896 0.457
0.277 0.024 0.232
0.053 0.861 0.025
0.574 0.573 0.042
0.139 0.598 0.54
0.126 0.868 0.492
0.686 0.412 0.615
0.817 0.063 0.835
0.004 0.675 0.214
0.097 0.821 0.228
VERTICES 100 200
1 0
1 1
1 2
1 3
1 4
1 5
1 6
1 7
1 8
1 9
1 10
1 11
1 12
1 13
1 14
1 15
1 16
1 17
1 18
1 19
1 20
1 21
1 22
1 23
1 24
1 25
1 26
1 27
1 28
1 29
1 30
1 31
1 32
1 33
1 34
1 35
1 36
1 37
1 38
1 39
1 40
1 41
1 42
1 43
1 44
1 45
1 46
1 47
1 48
1 49
1 50
1 51
1 52
1 53
1 54
1 55
1 56
1 57
1 58
1 59
1 60
1 61
1 62
1 63
1 64
1 65
1 66
1 67
1 68
1 69
1 70
1 71
1 72
1 73
1 74
1 75
1 76
1 77
1 78
1 79
1 80
1 81
1 82
1 83
1 84
1 85
1 86
1 87
1 88
1 89
1 90
1 91
1 92
1 93
1 94
1 95
1 96
1 97
1 98
1 99
POINT_DATA 100
scalars x float 1
LOOKUP_TABLE default
0.164
0.851
0.23
0.091
0.111
0.832
0.598
0.376
0.764
0.695
0.564
0.972
0.225
0.516
0.061
0.88
0.271
0.266
0.591
0.338
0.982
0.958
0.599
0.308
0.861
0.882
0.938
0.905
0.687
0.965
0.099
0.262
0.262
0.61
0.257
0.147
0.829
0.713
0.948
0.228
0.58
0.606
0.996
0.496
0.517
0.546
0.636
0.723
0.769
0.513
0.184
0.322
0.872
0.636
0.268
0.532
0.012
0.299
0.816
0.394
0.287
0.588
0.387
0.752
0.641
0.371
0.483
0.254
0.802
0.521
0.593
0.11
0.998
0.685
0.214
0.436
0.062
0.478
0.389
0.132
0.164
0.27
0.173
0.434
0.099
0.617
0.057
0.452
0.436
0.357
0.228
0.277
0.053
0.574
0.139
0.126
0.686
0.817
0.004
0.097
scalars y float 1
LOOKUP_TABLE default
0.961
0.941
0.206
0.763
0.201
0.596
0.447
0.562
0.429
0.726
0.307
0.121
0.505
0.612
0.572
0.288
0.584
0.089
0.582
0.429
0.22
0.746
0.721
0.382
0.81
0.047
0.517
0.753
0.305
0.753
0.725
0.143
0.33
0.674
0.879
0.563
0.744
0.121
0.028
0.31
0.037
0.932
0.459
0.057
0.009
0.019
0.017
0.28
0.403
0.818
0.749
0.845
0.145
0.505
0.615
0.926
0.527
0.534
0.086
0.728
0.458
0.766
0.817
0.964
0.372
0.133
0.51
0.541
0.701
0.379
0.967
0.301
0.778
0.647
0.02
0.318
0.741
0.468
0.686
0.457
0.084
0.48
0.931
0.131
0.842
0.253
0.476
0.671
0.647
0.57
0.896
0.024
0.861
0.573
0.598
0.868
0.412
0.063
0.675
0.821
scalars z float 1
LOOKUP_TABLE default
0.877
0.055
0.907
0.516
0.597
0.45
0.771
0.717
0.191
0.582
0.679
0.106
0.204
0.986
0.441
0.569
0.482
0.721
0.777
0.097
0.858
0.15
0.441
0.059
0.109
0.176
0.198
0.438
0.618
0.705
0.643
0.71
0.451
0.761
0.453
0.945
0.008
0.375
0.23
0.918
0.897
0.913
0.626
0.927
0.737
0.223
0.808
0.199
0.602
0.41
0.088
0.889
0.344
0.094
0.349
0.648
0.059
0.577
0.293
0.378
0.973
0.347
0.583
0.358
0.924
0.559
0.269
0.252
0.804
0.288
0.359
0.482
0.881
0.121
0.173
0.024
0.999
0.795
0.037
0.732
0.903
0.713
0.73
0.948
0.139
0.423
0.127
0.962
0.554
0.945
0.457
0.232
0.025
0.042
0.54
0.492
0.615
0.835
0.214
0.228
