# vtk DataFile Version 3.0
example
ASCII
DATASET POLYDATA
POINTS 100 float
0.7539022543433046 -0.6569865987187891 -7.0
0.8157251001253568 -0.5784397643882001 -6.9
0.8693974903498253 -0.49411335113860816 -6.8
0.9143831482353194 -0.4048499206165983 -6.7
0.9502325919585296 -0.31154136351337786 -6.6
0.9765876257280235 -0.21511998808781552 -6.5
0.9931849187581926 -0.11654920485049364 -6.4
0.9998586363834151 -0.016813900484349713 -6.3
0.9965420970232175 0.0830894028174964 -6.2
0.9832684384425845 0.18216250427209588 -6.1
0.960170286650366 0.27941549819892586 -6.0
0.9274784307440359 0.373876664830236 -5.9
0.8855195169413189 0.46460217941375737 -5.8
0.8347127848391598 0.5506855425976376 -5.7
0.7755658785102496 0.6312666378723216 -5.6
0.70866977429126 0.7055403255703919 -5.5
0.6346928759426347 0.7727644875559871 -5.4
0.5543743361791608 0.8322674422239013 -5.3
0.4685166713003771 0.8834546557201531 -5.2
0.37797774271298024 0.9258146823277325 -5.1
0.28366218546322625 0.9589242746631385 -5.0
0.18651236942257576 0.9824526126243325 -4.9
0.0874989834394464 0.9961646088358407 -4.8
-0.012388663462891447 0.9999232575641008 -4.699999999999999
-0.11215252693505487 0.9936910036334644 -4.6
-0.2107957994307797 0.977530117665097 -4.5
-0.30733286997841935 0.951602073889516 -4.4
-0.40079917207997545 0.9161659367494549 -4.3
-0.4902608213407002 0.8715757724135877 -4.199999999999999
-0.5748239465332692 0.8182771110644103 -4.1
-0.6536436208636119 0.7568024953079282 -4.0
-0.7259323042001402 0.6877661591839738 -3.9
-0.7909677119144168 0.6118578909427189 -3.8
-0.8481000317104083 0.529836140908493 -3.6999999999999997
-0.8967584163341472 0.4425204432948521 -3.5999999999999996
-0.9364566872907963 0.35078322768961984 -3.5
-0.9667981925794611 0.2555411020268312 -3.4
-0.9874797699088649 0.1577456941432482 -3.3
-0.9982947757947531 0.05837414342757964 -3.1999999999999997
-0.9991351502732795 -0.041580662433290935 -3.0999999999999996
-0.9899924966004454 -0.1411200080598672 -3.0
-0.9709581651495904 -0.23924932921398284 -2.8999999999999995
-0.9422223406686581 -0.3349881501559051 -2.8
-0.9040721420170612 -0.4273798802338298 -2.7
-0.8568887533689471 -0.5155013718214645 -2.5999999999999996
-0.8011436155469337 -0.5984721441039565 -2.5
-0.7373937155412451 -0.6754631805511513 -2.3999999999999995
-0.6662760212798241 -0.7457052121767203 -2.3
-0.5885011172553452 -0.8084964038195906 -2.1999999999999993
-0.5048461045998571 -0.8632093666488739 -2.0999999999999996
-0.4161468365471424 -0.9092974268256817 -2.0
-0.3232895668635029 -0.9463000876874147 -1.8999999999999995
-0.2272020946930869 -0.9738476308781953 -1.7999999999999998
-0.12884449429552397 -0.9916648104524687 -1.6999999999999993
-0.02919952230128837 -0.9995736030415052 -1.5999999999999996
0.0707372016677029 -0.9974949866040544 -1.5
0.16996714290024145 -0.9854497299884601 -1.3999999999999995
0.26749882862458757 -0.963558185417193 -1.2999999999999998
0.36235775447667423 -0.9320390859672261 -1.1999999999999993
0.4535961214255777 -0.8912073600614352 -1.0999999999999996
0.5403023058681398 -0.8414709848078965 -1.0
0.6216099682706648 -0.7833269096274831 -0.8999999999999995
0.6967067093471655 -0.7173560908995227 -0.7999999999999998
0.7648421872844889 -0.6442176872376905 -0.6999999999999993
0.8253356149096785 -0.564642473395035 -0.5999999999999996
0.8775825618903728 -0.479425538604203 -0.5
0.9210609940028853 -0.38941834230865 -0.39999999999999947
0.9553364891256061 -0.2955202066613394 -0.2999999999999998
0.9800665778412417 -0.19866933079506052 -0.1999999999999993
0.9950041652780258 -0.0998334166468278 -0.09999999999999964
1.0 0.0 0.0
0.9950041652780257 0.09983341664682868 0.10000000000000053
0.9800665778412416 0.19866933079506138 0.20000000000000018
0.9553364891256058 0.29552020666134027 0.3000000000000007
0.921060994002885 0.3894183423086508 0.40000000000000036
0.8775825618903728 0.479425538604203 0.5
0.825335614909678 0.5646424733950358 0.6000000000000005
0.7648421872844883 0.6442176872376912 0.7000000000000002
0.6967067093471649 0.7173560908995232 0.8000000000000007
0.6216099682706642 0.7833269096274836 0.9000000000000004
0.5403023058681398 0.8414709848078965 1.0
0.4535961214255777 0.8912073600614352 1.0999999999999996
0.36235775447667257 0.9320390859672267 1.200000000000001
0.26749882862458674 0.9635581854171932 1.3000000000000007
0.1699671429002406 0.9854497299884603 1.4000000000000004
0.0707372016677029 0.9974949866040544 1.5
-0.02919952230128837 0.9995736030415052 1.5999999999999996
-0.12884449429552575 0.9916648104524685 1.700000000000001
-0.22720209469308775 0.973847630878195 1.8000000000000007
-0.32328956686350374 0.9463000876874144 1.9000000000000004
-0.4161468365471424 0.9092974268256817 2.0
-0.5048461045998571 0.8632093666488739 2.0999999999999996
-0.5885011172553466 0.8084964038195895 2.200000000000001
-0.6662760212798248 0.7457052121767197 2.3000000000000007
-0.7373937155412458 0.6754631805511506 2.4000000000000004
-0.8011436155469337 0.5984721441039565 2.5
-0.856888753368948 0.515501371821463 2.6000000000000014
-0.9040721420170617 0.42737988023382895 2.700000000000001
-0.9422223406686584 0.3349881501559043 2.8000000000000007
-0.9709581651495907 0.23924932921398198 2.9000000000000004
LINES 99 297
2 0 1
2 1 2
2 2 3
2 3 4
2 4 5
2 5 6
2 6 7
2 7 8
2 8 9
2 9 10
2 10 11
2 11 12
2 12 13
2 13 14
2 14 15
2 15 16
2 16 17
2 17 18
2 18 19
2 19 20
2 20 21
2 21 22
2 22 23
2 23 24
2 24 25
2 25 26
2 26 27
2 27 28
2 28 29
2 29 30
2 30 31
2 31 32
2 32 33
2 33 34
2 34 35
2 35 36
2 36 37
2 37 38
2 38 39
2 39 40
2 40 41
2 41 42
2 42 43
2 43 44
2 44 45
2 45 46
2 46 47
2 47 48
2 48 49
2 49 50
2 50 51
2 51 52
2 52 53
2 53 54
2 54 55
2 55 56
2 56 57
2 57 58
2 58 59
2 59 60
2 60 61
2 61 62
2 62 63
2 63 64
2 64 65
2 65 66
2 66 67
2 67 68
2 68 69
2 69 70
2 70 71
2 71 72
2 72 73
2 73 74
2 74 75
2 75 76
2 76 77
2 77 78
2 78 79
2 79 80
2 80 81
2 81 82
2 82 83
2 83 84
2 84 85
2 85 86
2 86 87
2 87 88
2 88 89
2 89 90
2 90 91
2 91 92
2 92 93
2 93 94
2 94 95
2 95 96
2 96 97
2 97 98
2 98 99
POINT_DATA 100
SCALARS t float 1
LOOKUP_TABLE default
-7.0
-6.9
-6.8
-6.7
-6.6
-6.5
-6.4
-6.3
-6.2
-6.1
-6.0
-5.9
-5.8
-5.7
-5.6
-5.5
-5.4
-5.3
-5.2
-5.1
-5.0
-4.9
-4.8
-4.699999999999999
-4.6
-4.5
-4.4
-4.3
-4.199999999999999
-4.1
-4.0
-3.9
-3.8
-3.6999999999999997
-3.5999999999999996
-3.5
-3.4
-3.3
-3.1999999999999997
-3.0999999999999996
-3.0
-2.8999999999999995
-2.8
-2.7
-2.5999999999999996
-2.5
-2.3999999999999995
-2.3
-2.1999999999999993
-2.0999999999999996
-2.0
-1.8999999999999995
-1.7999999999999998
-1.6999999999999993
-1.5999999999999996
-1.5
-1.3999999999999995
-1.2999999999999998
-1.1999999999999993
-1.0999999999999996
-1.0
-0.8999999999999995
-0.7999999999999998
-0.6999999999999993
-0.5999999999999996
-0.5
-0.39999999999999947
-0.2999999999999998
-0.1999999999999993
-0.09999999999999964
0.0
0.10000000000000053
0.20000000000000018
0.3000000000000007
0.40000000000000036
0.5
0.6000000000000005
0.7000000000000002
0.8000000000000007
0.9000000000000004
1.0
1.0999999999999996
1.200000000000001
1.3000000000000007
1.4000000000000004
1.5
1.5999999999999996
1.700000000000001
1.8000000000000007
1.9000000000000004
2.0
2.0999999999999996
2.200000000000001
2.3000000000000007
2.4000000000000004
2.5
2.6000000000000014
2.700000000000001
2.8000000000000007
2.9000000000000004
SCALARS x float 1
LOOKUP_TABLE default
0.7539022543433046
0.8157251001253568
0.8693974903498253
0.9143831482353194
0.9502325919585296
0.9765876257280235
0.9931849187581926
0.9998586363834151
0.9965420970232175
0.9832684384425845
0.960170286650366
0.9274784307440359
0.8855195169413189
0.8347127848391598
0.7755658785102496
0.70866977429126
0.6346928759426347
0.5543743361791608
0.4685166713003771
0.37797774271298024
0.28366218546322625
0.18651236942257576
0.0874989834394464
-0.012388663462891447
-0.11215252693505487
-0.2107957994307797
-0.30733286997841935
-0.40079917207997545
-0.4902608213407002
-0.5748239465332692
-0.6536436208636119
-0.7259323042001402
-0.7909677119144168
-0.8481000317104083
-0.8967584163341472
-0.9364566872907963
-0.9667981925794611
-0.9874797699088649
-0.9982947757947531
-0.9991351502732795
-0.9899924966004454
-0.9709581651495904
-0.9422223406686581
-0.9040721420170612
-0.8568887533689471
-0.8011436155469337
-0.7373937155412451
-0.6662760212798241
-0.5885011172553452
-0.5048461045998571
-0.4161468365471424
-0.3232895668635029
-0.2272020946930869
-0.12884449429552397
-0.02919952230128837
0.0707372016677029
0.16996714290024145
0.26749882862458757
0.36235775447667423
0.4535961214255777
0.5403023058681398
0.6216099682706648
0.6967067093471655
0.7648421872844889
0.8253356149096785
0.8775825618903728
0.9210609940028853
0.9553364891256061
0.9800665778412417
0.9950041652780258
1.0
0.9950041652780257
0.9800665778412416
0.9553364891256058
0.921060994002885
0.8775825618903728
0.825335614909678
0.7648421872844883
0.6967067093471649
0.6216099682706642
0.5403023058681398
0.4535961214255777
0.36235775447667257
0.26749882862458674
0.1699671429002406
0.0707372016677029
-0.02919952230128837
-0.12884449429552575
-0.22720209469308775
-0.32328956686350374
-0.4161468365471424
-0.5048461045998571
-0.5885011172553466
-0.6662760212798248
-0.7373937155412458
-0.8011436155469337
-0.856888753368948
-0.9040721420170617
-0.9422223406686584
-0.9709581651495907
SCALARS y float 1
LOOKUP_TABLE default
-0.6569865987187891
-0.5784397643882001
-0.49411335113860816
-0.4048499206165983
-0.31154136351337786
-0.21511998808781552
-0.11654920485049364
-0.016813900484349713
0.0830894028174964
0.18216250427209588
0.27941549819892586
0.373876664830236
0.46460217941375737
0.5506855425976376
0.6312666378723216
0.7055403255703919
0.7727644875559871
0.8322674422239013
0.8834546557201531
0.9258146823277325
0.9589242746631385
0.9824526126243325
0.9961646088358407
0.9999232575641008
0.9936910036334644
0.977530117665097
0.951602073889516
0.9161659367494549
0.8715757724135877
0.8182771110644103
0.7568024953079282
0.6877661591839738
0.6118578909427189
0.529836140908493
0.4425204432948521
0.35078322768961984
0.2555411020268312
0.1577456941432482
0.05837414342757964
-0.041580662433290935
-0.1411200080598672
-0.23924932921398284
-0.3349881501559051
-0.4273798802338298
-0.5155013718214645
-0.5984721441039565
-0.6754631805511513
-0.7457052121767203
-0.8084964038195906
-0.8632093666488739
-0.9092974268256817
-0.9463000876874147
-0.9738476308781953
-0.9916648104524687
-0.9995736030415052
-0.9974949866040544
-0.9854497299884601
-0.963558185417193
-0.9320390859672261
-0.8912073600614352
-0.8414709848078965
-0.7833269096274831
-0.7173560908995227
-0.6442176872376905
-0.564642473395035
-0.479425538604203
-0.38941834230865
-0.2955202066613394
-0.19866933079506052
-0.0998334166468278
0.0
0.09983341664682868
0.19866933079506138
0.29552020666134027
0.3894183423086508
0.479425538604203
0.5646424733950358
0.6442176872376912
0.7173560908995232
0.7833269096274836
0.8414709848078965
0.8912073600614352
0.9320390859672267
0.9635581854171932
0.9854497299884603
0.9974949866040544
0.9995736030415052
0.9916648104524685
0.973847630878195
0.9463000876874144
0.9092974268256817
0.8632093666488739
0.8084964038195895
0.7457052121767197
0.6754631805511506
0.5984721441039565
0.515501371821463
0.42737988023382895
0.3349881501559043
0.23924932921398198
SCALARS z float 1
LOOKUP_TABLE default
-7.0
-6.9
-6.8
-6.7
-6.6
-6.5
-6.4
-6.3
-6.2
-6.1
-6.0
-5.9
-5.8
-5.7
-5.6
-5.5
-5.4
-5.3
-5.2
-5.1
-5.0
-4.9
-4.8
-4.699999999999999
-4.6
-4.5
-4.4
-4.3
-4.199999999999999
-4.1
-4.0
-3.9
-3.8
-3.6999999999999997
-3.5999999999999996
-3.5
-3.4
-3.3
-3.1999999999999997
-3.0999999999999996
-3.0
-2.8999999999999995
-2.8
-2.7
-2.5999999999999996
-2.5
-2.3999999999999995
-2.3
-2.1999999999999993
-2.0999999999999996
-2.0
-1.8999999999999995
-1.7999999999999998
-1.6999999999999993
-1.5999999999999996
-1.5
-1.3999999999999995
-1.2999999999999998
-1.1999999999999993
-1.0999999999999996
-1.0
-0.8999999999999995
-0.7999999999999998
-0.6999999999999993
-0.5999999999999996
-0.5
-0.39999999999999947
-0.2999999999999998
-0.1999999999999993
-0.09999999999999964
0.0
0.10000000000000053
0.20000000000000018
0.3000000000000007
0.40000000000000036
0.5
0.6000000000000005
0.7000000000000002
0.8000000000000007
0.9000000000000004
1.0
1.0999999999999996
1.200000000000001
1.3000000000000007
1.4000000000000004
1.5
1.5999999999999996
1.700000000000001
1.8000000000000007
1.9000000000000004
2.0
2.0999999999999996
2.200000000000001
2.3000000000000007
2.4000000000000004
2.5
2.6000000000000014
2.700000000000001
2.8000000000000007
2.9000000000000004
