# vtk DataFile Version 3.0
example
ASCII
DATASET UNSTRUCTURED_GRID
POINTS 10000 float
0.017 0.779 0.557
0.806 0.217 0.687
0.48 0.351 0.718
0.365 0.851 0.722
0.601 0.026 0.541
0.95 0.709 0.36
0.531 0.913 0.36
0.509 0.502 0.537
0.632 0.644 0.298
0.57 0.556 0.234
0.173 0.54 0.152
0.108 0.096 0.303
0.571 0.216 0.188
0.215 0.215 0.468
0.246 0.047 0.645
0.586 0.481 0.495
0.341 0.616 0.972
0.755 0.796 0.714
0.394 0.353 0.226
0.352 0.8 0.015
0.438 0.928 0.802
0.487 0.576 0.241
0.024 0.469 0.689
0.369 0.334 0.451
0.962 0.178 0.685
0.853 0.402 0.19
0.08 0.585 0.152
0.4 0.189 0.068
0.598 0.7 0.115
0.522 0.225 0.296
0.087 0.497 0.327
0.111 0.241 0.05
0.414 0.202 0.459
0.156 0.611 0.346
0.27 0.547 0.525
0.174 0.951 0.618
0.016 0.896 0.134
0.965 0.951 0.241
0.857 0.135 0.335
0.484 0.795 0.354
0.032 0.246 0.698
0.534 0.337 0.374
0.679 0.235 0.961
0.715 0.5 0.777
0.282 0.039 0.384
0.808 0.52 0.818
0.228 0.003 0.401
0.934 0.784 0.142
0.614 0.597 0.891
0.087 0.855 0.141
0.802 0.015 0.903
0.992 0.133 0.894
0.369 0.451 0.207
0.306 0.391 0.011
0.43 0.435 0.436
0.817 0.419 0.224
0.671 0.693 0.6
0.77 0.575 0.257
0.127 0.436 0.739
0.099 0.925 0.453
0.505 0.34 0.518
0.245 0.247 0.631
0.357 0.062 0.743
0.064 0.297 0.642
0.365 0.641 0.388
0.156 0.143 0.878
0.159 0.208 0.756
0.745 0.644 0.375
0.132 0.455 0.466
0.791 0.86 0.895
0.623 0.391 0.425
0.578 0.282 0.823
0.554 0.33 0.996
0.867 0.002 0.996
0.649 0.724 0.247
0.905 0.346 0.905
0.617 0.116 0.051
0.543 0.3 0.037
0.681 0.608 0.449
0.565 0.44 0.47
0.364 0.344 0.07
0.838 0.339 0.803
0.504 0.347 0.269
0.97 0.445 0.927
0.997 0.677 0.448
0.822 0.065 0.485
0.193 0.305 0.665
0.175 0.153 0.532
0.563 0.518 0.77
0.191 0.469 0.038
0.677 0.325 0.829
0.114 0.166 0.418
0.315 0.267 0.158
0.607 0.312 0.337
0.582 0.899 0.772
0.549 0.493 0.934
0.954 0.147 0.41
0.114 0.836 0.402
0.025 0.695 0.534
0.541 0.949 0.13
0.337 0.236 0.411
0.688 0.179 0.28
0.429 0.074 0.949
0.887 0.071 0.614
0.045 0.601 0.389
0.242 0.088 0.877
0.159 0.143 0.505
0.525 0.765 0.95
0.764 0.857 0.181
0.631 0.204 0.187
0.779 0.778 0.034
0.564 0.204 0.952
0.421 0.033 0.263
0.776 0.542 0.869
0.063 0.158 0.258
0.127 0.299 0.655
0.069 0.748 0.552
0.242 0.951 0.543
0.241 0.478 0.538
0.025 0.191 0.638
0.779 0.243 0.727
0.309 0.824 0.568
0.958 0.591 0.867
0.335 0.819 0.031
0.848 0.46 0.231
0.529 0.124 0.999
0.798 0.62 0.871
0.298 0.816 0.357
0.929 0.265 0.157
0.876 0.824 0.564
0.894 0.964 0.589
0.928 0.642 0.424
0.364 0.824 0.596
0.276 0.706 0.65
0.741 0.943 0.943
0.698 0.445 0.126
0.456 0.713 0.044
0.417 0.869 0.217
0.927 0.263 0.091
0.642 0.203 0.748
0.062 0.834 0.224
0.834 0.878 0.272
0.623 0.891 0.566
0.982 0.01 0.026
0.572 0.69 0.312
0.878 0.244 0.348
0.935 0.834 0.476
0.609 0.195 0.446
0.386 0.833 0.87
0.503 0.608 0.681
0.751 0.129 0.085
0.941 0.586 0.093
0.015 0.007 0.807
0.512 0.587 0.547
0.989 0.404 0.629
0.688 0.871 0.667
0.836 0.291 0.493
0.233 0.834 0.979
0.373 0.093 0.31
0.9 0.109 0.699
0.545 0.02 0.565
0.524 0.791 0.065
0.382 0.959 0.058
0.301 0.376 0.798
0.336 0.898 0.365
0.329 0.935 0.175
0.063 0.652 0.545
0.692 0.455 0.154
0.317 0.209 0.726
0.37 0.127 0.841
0.715 0.267 0.347
0.511 0.689 0.641
0.624 0.704 0.85
0.437 0.186 0.881
0.687 0.536 0.57
0.172 0.739 0.801
0.423 0.973 0.791
0.767 0.471 0.166
0.596 0.394 0.146
0.514 0.305 0.201
0.974 0.873 0.789
0.921 0.677 0.479
0.334 0.838 0.122
0.862 0.61 0.333
0.03 0.024 0.845
0.935 0.588 0.563
0.974 0.635 0.615
0.613 0.137 0.286
0.061 0.686 0.906
0.961 0.841 0.32
0.192 0.798 0.333
0.814 0.589 0.206
0.816 0.234 0.377
0.617 0.964 0.882
0.584 0.97 0.379
0.336 0.393 0.217
0.809 0.742 0.076
0.608 0.709 0.312
0.081 0.261 0.952
0.728 0.377 0.135
0.883 0.866 0.414
0.052 0.045 0.339
0.691 0.429 0.966
0.43 0.459 0.1
0.536 0.448 0.14
0.46 0.8 0.984
0.408 0.196 0.607
0.472 0.342 0.525
0.021 0.687 0.927
0.965 0.924 0.41
0.197 0.231 0.715
0.103 0.42 0.306
0.564 0.268 0.231
0.626 0.787 0.021
0.736 0.922 0.42
0.663 0.464 0.105
0.254 0.028 0.45
0.492 0.967 0.351
0.481 0.884 0.626
0.673 0.541 0.789
0.228 0.058 0.43
0.889 0.113 0.494
0.279 0.462 0.499
0.188 0.228 0.282
0.204 0.887 0.006
0.835 0.753 0.16
0.188 0.51 0.302
0.063 0.063 0.778
0.447 0.453 0.767
0.127 0.141 0.665
0.15 0.351 0.699
0.254 0.71 0.279
0.297 0.288 0.666
0.036 0.79 0.431
0.282 0.344 0.907
0.577 0.081 0.539
0.08 0.434 0.709
0.003 0.79 0.55
0.314 0.954 0.682
0.498 0.328 0.762
0.3 0.981 0.603
0.858 0.652 0.196
0.417 0.687 0.504
0.345 0.628 0.693
0.337 0.568 0.978
0.422 0.922 0.771
0.77 0.174 0.282
0.183 0.043 0.911
0.088 0.436 0.029
0.742 0.709 0.355
0.911 0.549 0.667
0.122 0.312 0.116
0.061 0.229 0.466
0.412 0.146 0.476
0.336 0.808 0.549
0.799 0.93 0.146
0.786 0.46 0.865
0.95 0.526 0.17
0.952 0.918 0.016
0.867 0.269 0.298
0.882 0.619 0.308
0.903 0.42 0.399
0.908 0.401 0.03
0.206 0.71 0.09
0.047 0.149 0.246
0.966 0.619 0.901
0.366 0.059 0.912
0.556 0.739 0.793
0.865 0.203 0.142
0.328 0.054 0.17
0.422 0.66 0.357
0.947 0.116 0.481
0.109 0.578 0.685
0.795 0.578 0.479
0.138 0.176 0.322
0.468 0.272 0.894
0.719 0.081 0.316
0.017 0.9 0.307
0.17 0.773 0.917
0.854 0.488 0.813
0.572 0.718 0.25
0.641 0.648 0.733
0.838 0.029 0.908
0.415 0.727 0.623
0.785 0.6 0.16
0.483 0.226 0.317
0.763 0.863 0.994
0.009 0.2 0.49
0.325 0.509 0.727
0.855 0.154 0.553
0.767 0.956 0.307
0.555 0.636 0.197
0.466 0.979 0.787
0.011 0.624 0.214
0.474 0.298 0.468
0.433 0.535 0.921
0.748 0.019 0.64
0.713 0.492 0.916
0.888 0.076 0.227
0.388 0.422 0.034
0.43 0.135 0.062
0.895 0.471 0.266
0.188 0.981 0.88
0.459 0.66 0.522
0.07 0.598 0.618
0.075 0.331 0.386
0.299 0.069 0.58
0.596 0.601 0.797
0.637 0.372 0.143
0.651 0.884 0.986
0.16 0.19 0.865
0.432 0.811 0.336
0.518 0.704 0.408
0.985 0.397 0.537
0.4 0.235 0.328
0.867 0.798 0.728
0.359 0.608 0.965
0.143 0.444 0.641
0.674 0.647 0.948
0.473 0.836 0.76
0.821 0.15 0.625
0.172 0.269 0.496
0.413 0.441 0.849
0.816 0.02 0.768
0.429 0.34 0.968
0.402 0.883 0.565
0.852 0.427 0.762
0.154 0.706 0.482
0.311 0.299 0.776
0.29 0.699 0.927
0.654 0.646 0.969
0.422 0.411 0.161
0.084 0.709 0.156
0.938 0.0 0.912
0.399 0.05 0.032
0.457 0.385 0.934
0.789 0.883 0.368
0.578 0.801 0.195
0.514 0.31 0.191
0.544 0.775 0.765
0.885 0.461 0.603
0.562 0.377 0.424
0.642 0.845 0.624
0.953 0.841 0.197
0.4 0.578 0.607
0.548 0.358 0.204
0.005 0.723 0.682
0.962 0.407 0.247
0.664 0.819 0.603
0.304 0.547 0.85
0.118 0.364 0.734
0.365 0.187 0.649
0.455 0.088 0.423
0.327 0.565 0.909
0.51 0.033 0.563
0.984 0.3 0.012
0.27 0.474 0.783
0.577 0.949 0.623
0.457 0.717 0.061
0.39 0.596 0.86
0.467 0.168 0.498
0.026 0.57 0.273
0.573 0.638 0.641
0.159 0.184 0.703
0.266 0.492 0.255
0.24 0.327 0.472
0.696 0.075 0.067
0.842 0.787 0.186
0.839 0.182 0.606
0.536 0.951 0.083
0.712 0.795 0.244
0.804 0.133 0.151
0.422 0.05 0.203
0.982 0.193 0.986
0.545 0.893 0.623
0.659 0.274 0.758
0.812 0.752 0.264
0.738 0.825 0.197
0.949 0.016 0.233
0.283 0.577 0.597
0.411 0.294 0.28
0.367 0.316 0.485
0.155 0.499 0.865
0.08 0.037 0.067
0.171 0.11 0.061
0.992 0.734 0.76
0.072 0.017 0.381
0.602 0.83 0.907
0.353 0.423 0.793
0.066 0.934 0.07
0.78 0.672 0.565
0.036 0.879 0.493
0.755 0.236 0.571
0.041 0.18 0.374
0.884 0.904 0.966
0.805 0.186 0.302
0.0 0.142 0.779
0.265 0.204 0.9
0.428 0.435 0.776
0.369 0.873 0.116
0.806 0.44 0.197
0.735 0.517 0.023
0.092 0.714 0.753
0.85 0.939 0.247
0.508 0.298 0.043
0.469 0.327 0.707
0.306 0.925 0.083
0.754 0.092 0.387
0.266 0.428 0.389
0.792 0.329 0.942
0.948 0.03 0.759
0.914 0.816 0.264
0.086 0.318 0.701
0.963 0.555 0.308
0.098 0.676 0.081
0.086 0.364 0.619
0.846 0.291 0.794
0.209 0.259 0.85
0.22 0.351 0.853
0.95 0.292 0.191
0.52 0.498 0.1
0.239 0.523 0.459
0.537 0.245 0.123
0.433 0.968 0.13
0.15 0.14 0.239
0.461 0.793 0.19
0.47 0.957 0.923
0.432 0.29 0.178
0.153 0.469 0.28
0.402 0.424 0.908
0.277 0.539 0.706
0.322 0.896 0.312
0.012 0.604 0.528
0.345 0.045 0.234
0.062 0.824 0.41
0.709 0.032 0.282
0.569 0.786 0.504
0.937 0.707 0.929
0.261 0.479 0.111
0.161 0.298 0.613
0.837 0.057 0.005
0.096 0.681 0.849
0.352 0.578 0.889
0.642 0.086 0.195
0.19 0.384 0.59
0.569 0.986 0.108
0.42 0.58 0.078
0.317 0.944 0.758
0.284 0.505 0.642
0.204 0.571 0.065
0.994 0.403 0.071
0.978 0.305 0.972
0.594 0.505 0.911
0.271 0.836 0.701
0.579 0.46 0.099
0.208 0.92 0.646
0.45 0.392 0.521
0.788 0.328 0.43
0.134 0.176 0.168
0.678 0.925 0.788
0.813 0.41 0.027
0.966 0.755 0.739
0.569 0.825 0.797
0.096 0.817 0.135
0.909 0.22 0.621
0.996 0.046 0.085
0.032 0.418 0.775
0.322 0.253 0.425
0.595 0.189 0.875
0.993 0.704 0.375
0.926 0.964 0.587
0.606 0.14 0.231
0.534 0.642 0.494
0.192 0.599 0.902
0.583 0.519 0.506
0.047 0.788 0.211
0.153 0.323 0.774
0.384 0.587 0.405
0.374 0.719 0.902
0.591 0.448 0.517
0.402 0.304 0.39
0.429 0.684 0.884
0.184 0.17 0.594
0.382 0.037 0.108
0.288 0.229 0.066
0.62 0.915 0.283
0.745 0.004 0.585
0.128 0.631 0.591
0.204 0.758 0.527
0.946 0.758 0.756
0.509 0.496 0.576
0.576 0.054 0.291
0.005 0.751 0.683
0.603 0.042 0.462
0.081 0.591 0.786
0.446 0.338 0.059
0.659 0.191 0.234
0.121 0.48 0.752
0.571 0.807 0.585
0.612 0.818 0.294
0.637 0.231 0.984
0.024 0.714 0.021
0.88 0.37 0.779
0.734 0.411 0.062
0.908 0.881 0.103
0.733 0.645 0.596
0.51 0.684 0.038
0.719 0.613 0.247
0.651 0.363 0.233
0.386 0.581 0.94
0.453 0.58 0.407
0.492 0.412 0.406
0.915 0.201 0.457
0.699 0.127 0.052
0.133 0.113 0.304
0.585 0.734 0.113
0.313 0.478 0.587
0.208 0.028 0.216
0.378 0.706 0.589
0.058 0.501 0.893
0.045 0.23 0.164
0.181 0.517 0.434
0.884 0.83 0.588
0.585 0.633 0.831
0.427 0.462 0.175
0.307 0.897 0.354
0.317 0.011 0.758
0.146 0.558 0.472
0.442 0.069 0.56
0.101 0.018 0.627
0.867 0.612 0.33
[...]
POINT_DATA 10000
SCALARS example float 1
LOOKUP_TABLE default
0.5077549029193762
0.22142947791950957
0.5436727527438565
0.1590928304604323
0.22939098680706274
0.7003634579275659
0.6502422379794222
0.18012470092861435
0.5347597133359006
0.4901055978465978
0.4374623976347996
0.28127864262086827
0.4462939823792338
0.4038221712230493
0.5679706306042699
0.21704179214003932
0.7255625987027416
0.300042867836716
0.29502136514354016
0.6398623163699977
0.057933051753804234
0.46173482290795503
0.4927164645522953
0.2772635633553995
0.5334986853381006
0.6550794406788385
0.5037551788376582
0.3333442568873387
0.6010460185794789
0.3368542321653725
0.31753172440136995
0.20146865704263142
0.28264140419631534
0.41445736396233035
0.22436115396404988
0.5829197156351705
0.769425206535044
0.7999849812457949
0.6626855206763069
0.562008741170409
0.6118793738615912
0.27719686704597435
0.6837391744978966
0.4324588712557903
0.27464908043065306
0.3962744436610734
0.32489031947112484
0.755936460516189
0.607951825180377
0.7192348892336682
0.4159287702752184
0.2625566404902575
0.3531749660259081
0.34854626722214677
0.054935954329677614
0.6219503684626406
0.31910751936036935
0.6003928293702402
0.5880965969443032
0.6846209563308758
0.26040041220065635
0.5489183898688579
0.6174523662242473
0.5497983763996748
0.3889540158463187
0.7611634937108329
0.6684800593944852
0.5572443706571061
0.22769582024148013
0.33404665202403394
0.33513493670603756
0.6077591946040488
0.7651134716835002
0.47238334135349447
0.6002475091465616
0.4257481779937509
0.5359736982580187
0.45258263651653097
0.4499101794603725
0.2066468436798961
0.3404938494586379
0.32806492068935206
0.3491064987986155
0.3801338644182958
0.6884752645879868
0.5855051114050633
0.5720037510242307
0.4844480630627119
0.5201522887057924
0.39559659590757074
0.5529730986034626
0.3813672164327128
0.2453502991674044
0.3926712875515396
0.16573399427491653
0.698764227850348
0.7100354879550101
0.6245264245550151
0.4128498249231842
0.7271983210455863
0.27770433704948755
0.5237188148322218
0.7590651108956741
0.5589827652443133
0.41682852221478095
0.7519074751602373
0.4632837404609212
0.6176798223581063
0.7132512376344984
0.5015910696395082
0.7016835528180563
0.7266392887200853
0.30377761265765885
0.5046474331820787
0.2164139440061047
0.5656506848663267
0.44037315259715026
0.6145347208329931
0.33690081653445547
0.5746186030235758
0.2259271721650832
0.4296374162638354
0.22353266963168822
0.6537296281457334
0.6427190932751846
0.7685507584346577
0.4634354874309013
0.5808007637864796
0.7269701928201087
0.595204566733941
0.6601121853564216
0.6484500270078707
0.3851526625088028
0.20527650576195144
0.37730787337233596
0.563776868185255
0.5841982187542899
0.6600043325486048
0.7328117653368745
0.4673301450621243
0.6982798155650511
0.7260288619576407
0.525820556241614
0.8286504104976321
0.5294115630367406
0.6469837578310359
0.6820847821297126
0.2974792845086084
0.46650737641488166
0.37397470182745546
0.6367818806762396
0.7296453322462182
0.7221429904808799
0.0833298732577599
0.5549780990115691
0.4199718949847421
0.5185961313952112
0.5929828481439567
0.12997310860598138
0.46616731536253675
0.17984749208784834
0.6395683266289134
0.7407647116920875
0.6591773385448937
0.6411151309046363
0.7191907436439585
0.29706330917237617
0.5558063902996618
0.6211374534524349
0.700000332596661
0.4975470511809749
0.16393216878859435
0.5021832875079322
0.7137988548103015
0.2543382325952691
0.4253261313195634
0.2929569454691542
0.6044612108341451
0.48318906603346
0.3894759033636088
0.46871364224777956
0.623731211459358
0.6597102945948168
0.6378396471276083
0.7476740469283082
0.5599480892198159
0.5613157934412506
0.46026143902761385
0.5836279664451381
0.7503864760355244
0.5971722550087593
0.6429231666637282
0.5830894091473743
0.2478434213351433
0.6861604462832588
0.29265126185219076
0.6989620351802074
0.5534115168330282
0.7976879720416095
0.5777591068322417
0.6964478880578822
0.3292015771114597
0.6843458402648886
0.4203517221325524
0.4598073042797646
0.6412854595746329
0.47370647978921826
0.30689710084732946
0.5919843473965716
0.7523425483974733
0.6300269012201152
0.221994299643843
0.4174062302357971
0.6592499460961987
0.6688480799167746
0.547885460532663
0.37081292094896146
0.6892017193455534
0.42812929124782323
0.4714388305755113
0.36892959858536345
0.626611724226009
0.29007247254655916
0.18615094963458673
0.7205618897229826
0.7039526950104763
0.3232679231728995
0.7000339473475936
0.5819279736158057
0.6061782514788183
0.5882779381847344
0.5287837455970136
0.5632220903460076
0.5981934937474065
0.75100735201636
0.04722647441973687
0.5524985362604167
0.53542627978493
0.4741478806256983
0.5836507683535427
0.5875713333820263
0.6820950114744716
0.31892654659233655
0.4153877253062378
0.7470592954327917
0.2097203120944896
0.5972405563215051
0.7807072793130746
0.3878382188046811
0.5918545609359088
0.4183408596676934
0.243904517741205
0.40619462621740293
0.3043942534124451
0.42518910732481696
0.7575826055679366
0.5051171549638329
0.7219268761755572
0.8047930243118294
0.6507226900124737
0.6603558972196263
0.6235779845663793
0.7086365750410644
0.5861020693513199
0.20613851576450978
0.3009381925844157
0.7487069494769644
0.41642235326441446
0.6964963187473155
0.2500779442438373
0.44014272007185296
0.6848190489081806
0.41830718777776504
0.502474092647634
0.27558561410998617
0.7145231025477724
0.5683553478223504
0.742705785133601
0.5547871670373
0.3259871388048563
0.5711244053967234
0.34205383482595025
0.37248177661004217
0.10430871981350676
0.6385015086779927
0.2699546520618993
0.5356713419217995
0.43428349734649924
0.5428285102491922
0.5339455514719693
0.7321110200293087
0.5365403817259968
0.31100463043376836
0.5483389113210556
0.21464059293062626
0.7022670112719638
0.3605464020284195
0.6153948973794016
0.7323510002140551
0.3936906640456785
0.3670234516042075
0.6656757037704722
0.19589741512245654
0.26305733211292776
0.24502742054942847
0.23978719959723824
0.49053842696981864
0.5023344707455958
0.5102548488556228
0.5523404437606633
0.7491078056803909
0.5788604797957719
0.46399315204842667
0.6207051001446044
0.11652933997649532
0.39697558331823146
0.722088118908369
0.48533172996129964
0.6285053151857369
0.2226249081496144
0.4146074647871532
0.4225695631532793
0.6694036432386516
0.24272850747018412
0.7739214272852802
0.49411719775954205
0.18915583552756102
0.41283377353555417
0.654463242983422
0.6438558318540458
0.6583456598947002
0.3748566187795991
0.6072287544692123
0.2175631533463266
0.36639905179693727
0.7388758951476718
0.6853243568049511
0.6357437716419304
0.394528962330628
0.32599140932476595
0.45595676653569767
0.2546952259019135
0.4266819645301141
0.7710312317461991
0.3192212966186219
0.42291111991392577
0.23032463437408301
0.7167240475890437
0.43669390188961416
0.6481083619638524
0.6129300759581024
0.5369350286899186
0.0647620513249256
0.6923752357879454
0.26621330173957525
0.7665479684890826
0.6178085490074664
0.51904749467779
0.5856955754193376
0.6301191768131341
0.27933594499313863
0.46712100004230134
0.20130200107577328
0.6298935701329522
0.33531545763314524
0.3614074764957757
0.6117688402310618
0.713448439184484
0.44927326094446096
0.7322552800636734
0.6567602379676007
0.6676200774263938
0.33717195244889014
0.38958984324681434
0.45170812406243044
0.47569587442879463
0.6727514790518954
0.6889262137329678
0.7906088007421541
0.32084555483970484
0.23469319313792142
0.33494188801631586
0.6767455027968536
0.017887589779592667
0.13671999375795887
0.44925504558940255
0.36662839504551176
0.49738460888494695
0.6357146408869312
0.7833849201383276
0.4487820607304207
0.6492302864416281
0.341552745633556
0.33010510761235606
0.35745431870394506
0.6167406686339615
0.6932208688689482
0.7625887426323102
0.6011501174896743
0.6817348408714049
0.6215044381853347
0.6079250942254619
0.3318701390553449
0.7599068094388245
0.4259754475440651
0.5406806436944888
0.7256554007447096
0.5631557896023959
0.10576877010766887
0.5989624459244658
0.5168912286337317
0.7366405851875514
0.5975893729606077
0.7022135155909996
0.5871323640881512
0.5003449517552108
0.27259461994028006
0.7284165605790628
0.7143929869654608
0.7317621022694187
0.47893725694415085
0.07084898530948797
0.4341641725327798
0.7377560950496371
0.18865462556719195
0.6155601384639711
0.3950892388646801
0.3309246488325324
0.30058698508378734
0.723192208752299
0.5051986394916903
0.6605541714276545
0.27726014346522476
0.22341806332896952
0.6294966871058466
0.5920778400342046
0.47081220783146077
0.37490487014157287
0.38967383314991694
0.5277058502107832
0.7242803644322325
0.5308834763668548
0.6683408655542328
0.5406813800034047
0.4682805968382676
0.7515749160079083
0.49074826932408455
0.3365389045829002
0.45193932936367187
0.4767366895333623
0.7598164257493021
0.42590347866142736
0.6612744530667973
0.23108741064380608
0.49713038023925377
0.5056049631200645
0.2981769010779975
0.5089869637383806
0.05360264855130913
0.25636395936981465
0.6469436591397525
0.45930323886940744
0.311356017392906
0.690086686227527
0.5121129496707454
0.8249413622952898
0.6147009707997492
0.3024314918042258
0.6433062933789605
0.7182118403563992
0.6752539723493743
0.47822555130551375
0.3262645880376887
0.6668936226202984
0.22313235502171402
0.6712782965713364
0.6606129543608842
0.3148511837338031
0.6071240302584227
0.1334957604058241
0.14195481541364094
0.6054893973655346
0.537007952618324
0.3415460046809218
0.25234405131486737
0.6873132352162168
0.44222560957888346
0.12419356174303375
0.41572624878082653
0.4125896947583964
0.2776275138748025
0.4509906667572947
0.30147425465588745
0.3483527004910986
0.5283188181056594
0.38818516342846704
0.5129721805092206
0.5771696244600473
0.4054345824184921
0.625469933936061
0.7243607970102482
0.6457411875563782
0.14488767610130812
0.5925011048951632
0.7763522594978459
0.34664857053197556
0.5765911135899978
0.5853236204949382
0.4923176303609113
0.7091074575819593
0.3301682331859894
0.20885072368127608
0.6413989643118996
0.5994770419550938
0.2739187888464608
0.6150397768939526
0.3981952366009576
0.09169693063145218
0.1651643836495713
0.6863080769042395
0.13257097314932367
0.13419335073912317
0.5852704517284959
0.5344630551558112
0.39835646037713546
0.648647957937822
0.6372858049352201
0.16780832897487627
0.37039826162336076
0.5810496000183301
0.6424259332018626
0.5329150262924875
0.5354427222283682
0.38657325786906976
0.4548788494163163
0.3796686086657704
0.2841483348614053
0.16011825001111302
0.7838743900073157
0.48323073049032067
0.4670454945492808
0.7709968749063105
0.3018631583836611
0.6762067597448828
0.4051333496767322
0.7503728451968162
0.7011641636541146
0.20183768008918676
0.2524104217623079
0.6182068238052529
0.7749708990169808
0.714709827572719
0.6169342683809282
0.3244555434711365
0.34994092620257006
0.4891069255543827
0.7975004734130429
0.6594118194010107
0.34429813323499847
0.37518939960626885
0.7246699860662786
0.44160435775909673
0.25943638922179707
0.6592045029420149
0.19729961018258532
0.4725615468874105
0.7055080995551269
0.54491168410838
0.42988133072918877
0.49073213211241845
0.8137095316923955
0.7323936706865679
0.7346234419491708
0.6019780780077035
0.3941242693919437
0.6516211484915675
0.42072484233398694
0.7645767504808423
0.7105915080235028
0.6552523430104293
0.295421469972036
0.2601639008395478
0.6248568332314804
0.4327067637615645
0.7255914170116236
0.48089498601875874
0.5286161378147479
0.566027676350542
0.2515898844814269
0.7672517849831001
0.31797156631332835
0.5037355431918473
0.4779127805198069
0.6730716651490941
0.6126131634684822
0.388862913736777
0.5177757642095392
0.33392624509874863
0.16394414913312447
0.2519036280074981
0.7613909314489082
0.6667598821148437
0.3311595685819208
0.11716534996771373
0.48353611637632776
0.6799882539844656
0.06826962070524575
0.6481083619638524
0.21574149476246526
0.5775198528902706
0.7209593363839414
0.6872566767373832
0.5928185336877926
0.7639402854994419
0.7753761627389617
0.6816353454572339
0.19106010627349243
0.3060475490197458
0.4849536622501364
0.42312272773523607
0.6153657639294361
0.6572960322011443
0.549044956170354
0.29437928351569637
0.7346978491845467
0.7511910993187786
0.5379352955044843
0.6639412896667828
0.7530170654033195
0.43355987228302023
0.33799611764060566
0.211791870649386
0.37142471028473195
0.5063317446608314
0.7855592960221558
0.362136581036461
0.4716417653884523
0.4552049396575347
0.5947719572034771
0.26898579458957866
0.33359105354700597
0.4931190586059972
0.2774174099595651
0.4508943180986561
0.41378692081216
0.6341564291799578
0.5209523187501324
0.36323384050273666
0.6262582403146124
0.29338430095633283
0.5723383207909218
0.7797691052082129
0.7089566918475221
0.4143753647837594
0.5001631459128965
0.7601533328233663
0.49515776314356513
0.2580579178776778
0.5495622534309869
0.7931610108939666
0.37175756738144744
0.4704169456974247
0.5288903634437796
0.7839250439225595
0.35367088951154857
0.6300696245078414
0.5366744624794558
0.45870520399039094
0.4170155706866409
0.11922721168743268
0.2618254906960482
0.4834459168247993
0.5047559494202696
0.6168875065576068
0.43131678200692175
0.44446294220771343
0.5010794719615541
0.11586411785359169
0.6905068997853813
0.6854381465976602
0.6091132313790212
0.5970011295079214
0.5551646878152415
0.21655711201066538
0.2545111607916051
0.7860529120363414
0.6310848610463511
0.5784143948115518
0.6086903612149185
0.2653299147171179
0.5138714314823879
0.7020465686807066
0.4835387179370131
0.1144785849495095
0.4540244383642611
0.16753914820542853
0.15621734498613082
0.6930133199193589
0.729814609501091
0.4624603714273047
0.7429856236686306
0.42232953437328097
0.6725032317077638
0.3565485045577549
0.6464387650067889
0.5629671784204909
0.1711760899882499
0.13977279219200342
0.7598337515555956
0.1150830769345281
0.6189101993292715
0.716866262228951
0.5483814148724957
0.13553378360140805
0.5586932796669748
0.3520401667578788
0.7570977215527133
0.5035538610308012
0.5433893718325062
0.333697747982232
0.4315463232562556
0.38723246158317665
0.5806227274332234
0.630244449357352
0.4705826691431931
0.6795972581521456
0.6656142283282753
0.5515367765821867
0.35876595562465086
0.5100668874453148
0.6164278370425162
0.34731951163758723
0.7146351511860058
0.39707899167542215
0.24888352348120574
0.678586432491649
0.8089466989198091
0.4992120778704578
0.5252201333590953
0.8094300030759054
0.7087373467256014
0.5427538562435611
0.30445122105718714
0.13698336741311548
0.10295790944235977
0.09596142079759556
0.46251477143685354
0.2415144694995807
0.31351892120234387
0.22343752920959475
0.7088107774667288
0.19937366174577054
0.5149569985926816
0.3754953375348379
0.7197926494764119
0.7481438659944236
0.7370588366576137
0.6877509860441405
0.7059814809824488
0.6198070618226131
0.32371458810474246
0.5677430063129849
0.09744124643117795
0.6808148044507899
0.6035370415714411
0.5645200272624129
0.5867160905988882
0.41790496158963475
0.17046435754358308
0.42756298931884473
0.6973240806924299
0.4869412221018367
0.5404596813501421
0.10103501725912023
0.4735681466614565
0.22140545526284375
0.4016947020188408
0.6557330367817354
0.15088767568968522
0.5439880011041901
0.6033905705934419
0.6785888945521291
0.30340694544233976
0.33069793528988306
0.10335734828885405
0.5623148949395748
0.7113561828679247
0.6346221148350449
0.8252386052949153
0.57189799559013
0.7181592948237991
0.306518494905821
0.2205848290172039
0.695763945053292
0.635652449560448
0.16446740352930792
0.554023818013756
0.13086003797790974
0.5132199041179629
0.6248747622279136
0.575992335595895
0.6845996903665427
0.30053856008712293
0.636583565584915
0.5014922687274493
0.5674934040367272
0.5299084545094874
0.31836390145067583
0.6691127994621509
0.8068395665640845
0.49474745219318395
0.6680485697859031
0.34997236790957154
0.6734525731713581
0.5514111044002915
0.6452366618075793
0.1466325641599704
0.41905346933801974
0.5587352488801416
0.09223753346147591
0.44426741725746227
0.45028984269080297
0.7897652916762492
0.5168912286337318
0.21710870789540956
0.5182203355417467
0.5890312308444265
0.5488622834099907
0.5514453830876188
0.7769051488857714
0.2068535609220866
0.7318766555065139
0.5555658009286866
0.34164979802879747
0.5001383468511307
0.7380882581296702
0.5579727263397649
0.258743545555171
0.47491519123982817
0.5269402374856476
0.7903692811542181
0.46719376064502155
0.8189584588657292
0.7009576363173006
0.5549102239700558
0.22261839438906095
0.0650616144693442
0.4244122482508637
0.3545854652205431
0.612700658020024
0.4149042690537768
0.6008693507671522
0.5259334531650387
0.6790892894690396
0.2689026714400305
0.6129432493777185
0.35223913506837773
0.5800327865658447
0.43927569981958225
0.46860135672681213
0.6041610032495137
0.5767167270123978
0.2196992791238321
0.18868308204670906
0.7659606261143651
0.5841006388150863
0.1891996896009035
0.25137286693959027
0.5303811399146179
0.35759991427948046
0.6871521610925866
0.5679086278408005
0.5448374712280583
0.6156094576621779
0.33130350097871164
0.6414066768416642
0.4341190385464301
0.2714454238669708
0.5165128091555934
0.24283333555492226
0.514905494415092
0.20947258001347122
0.1319882077792086
0.5468046273946936
0.5058457653710687
0.7252148664382545
0.754658014773035
0.6213496278636649
0.191121367364651
0.48416339227233585
0.05710035300360136
0.47394998918398235
0.55953031713861
0.4219759258842435
0.6220792533066106
0.2841083989134552
0.45390247366356284
0.461199363728535
0.2589722609639904
0.504001348718275
0.15147714083217872
0.5362206161691472
0.6054239246607127
0.21570332245766166
0.4927189980501138
0.4660651397830377
0.20945636240689897
0.7428169532720142
0.7300255492363508
0.19010534132002663
0.04359810130919168
0.1250867923040919
0.5536060362741124
0.8352981597981408
0.467762578508125
0.4595814042460665
0.28575719768747865
0.6844203237162803
0.41831876288099523
0.5512475204666631
0.5843679429181506
0.669687144983578
0.4456550274934179
0.6742444987626499
0.4286059087833278
0.35697104725325224
0.398863112950995
0.24948535219008106
0.35276127970470655
0.7724217349090531
0.49510241202967775
0.7490831598059462
0.5779710512762434
0.569261339880352
0.7747102527295404
0.5998820768289381
0.5093607278134842
0.5430918683238081
0.27425824435163765
0.6770954302927227
0.792291202299017
0.5568029743425905
0.3990172977747562
0.3319077819710862
0.4763517335195839
0.7061951035183505
0.6657182175751658
0.3301345679585779
0.6978363916544166
0.5831624825130691
0.4508905017442836
0.5548437502882434
0.6123163556802452
0.596885117447402
0.3873761884364402
0.459375825691389
0.4278319504109674
0.4627037209511054
0.7133363983224871
0.3426333211766972
0.38074641695745975
0.17694814257381272
0.5196577904002605
0.41298462528556373
0.749429962997029
0.4463162271152338
0.5969340353600159
0.5337924042557008
0.5620205212515245
0.7498110790381436
0.7877445281961033
0.501188280255238
0.44931735720392135
0.6477149896248402
0.33427901882760636
0.12914121696214226
0.6121525523549193
0.24407960314610944
0.6140892045909618
0.7801164602180045
0.1998831515356215
0.4939051753203433
0.524530031842788
0.28097892477400566
0.7475757434773823
0.4567903878674095
0.17117895364724545