# vtk DataFile Version 3.0
example
ASCII
DATASET RECTILINEAR_GRID
DIMENSIONS 20 20 20
X_COORDINATES 20 float
-5.0 -4.9 -4.8 -4.7 -4.6 -4.5 -4.4 -4.3 -4.2 -4.1 -4.0 -3.9 -3.8 -3.7 -3.5999999999999996 -3.5 -3.4 -3.3 -3.2 -3.0999999999999996 
Y_COORDINATES 20 float
-5.0 -4.9 -4.8 -4.7 -4.6 -4.5 -4.4 -4.3 -4.2 -4.1 -4.0 -3.9 -3.8 -3.7 -3.5999999999999996 -3.5 -3.4 -3.3 -3.2 -3.0999999999999996 
Z_COORDINATES 20 float
0.0 0.1 0.2 0.30000000000000004 0.4 0.5 0.6000000000000001 0.7000000000000001 0.8 0.9 1.0 1.1 1.2000000000000002 1.3 1.4000000000000001 1.5 1.6 1.7000000000000002 1.8 1.9000000000000001 
POINT_DATA 8000
SCALARS example float 1
LOOKUP_TABLE default
5.477225575051661
5.476312628037227
5.473572873361603
5.469003565550127
5.462600113499065
5.454356057317857
5.44426303552648
5.432310742216428
5.418486873657627
5.40277706369604
5.385164807134504
5.365631370118525
5.344155686354955
5.320714237769211
5.295280917949491
5.267826876426369
5.238320341483518
5.206726418777925
5.173006862551025
5.137119815616529
5.432310742216429
5.431390245600108
5.428627819255986
5.424020648928248
5.417564028232616
5.409251334519409
5.399073994677236
5.387021440462253
5.373081052803876
5.35723809439155
5.339475629684998
5.319774431308155
5.298112871579843
5.274466797696237
5.248809388804284
5.221110992882646
5.191338940966964
5.159457335805773
5.1254268114958
5.089204259999789
5.388877434122992
5.387949517209678
5.385164807134504
5.380520420925842
5.374011537017761
5.365631370118525
5.355371135598354
5.343220002957018
5.329165037789691
5.313191131514093
5.295280917949491
5.275414675643991
5.253570214625479
5.229722745997153
5.203844732503075
5.175905717843014
5.145872132107443
5.113707070218238
5.079370039680118
5.042816673249187
5.346961754117941
5.346026561849464
5.343220002957019
5.338539126015656
5.331978994707312
5.323532661682466
5.313191131514093
5.300943312279429
5.286775955154521
5.270673581241776
5.252618394667559
5.232590180780452
5.210566188045211
5.186520991955976
5.160426338976268
5.132250968142537
5.101960407529639
5.06951674225463
5.034878350069642
4.99799959983992
5.3065996645686395
5.305657357952923
5.30282943342514
5.298112871579842
5.2915026221291805
5.282991576748916
5.272570530585627
5.260228131934964
5.2459508194416005
5.229722745997153
5.211525688318153
5.191338940966964
5.169139193328034
5.144900387762624
5.11859355682789
5.090186637049765
5.059644256269406
5.026927491022722
4.991993589739473
4.954795656734998
5.267826876426369
5.2668776329054765
5.264028875300743
5.259277516921882
5.252618394667558
5.244044240850758
5.2335456432518095
5.221110992882645
5.206726418777925
5.1903757089443925
5.172040216394301
5.151698748956503
5.1293274412928636
5.104899607240087
5.078385570237849
5.049752469181039
5.018964036531842
4.985980344927164
4.950757517794625
4.913247398615299
5.230678732248808
5.229722745997153
5.226853738148792
5.222068555658763
5.215361924162119
5.206726418777925
5.196152422706632
5.183628073077775
5.169139193328034
5.152669211195301
5.134199061197374
5.113707070218238
5.091168824543142
5.06655701635736
5.039841267341661
5.01098792654702
4.979959839195493
4.946716082412655
4.91121166312347
4.873397172404482
5.195190083144215
5.19422756528822
5.191338940966964
5.186520991955976
5.179768334587947
5.171073389539158
5.160426338976267
5.1478150704934995
5.133225107084239
5.1166395221864125
5.098038838612354
5.0774009099144415
5.054700782440044
5.029910535983716
5.002999100539594
4.973932046178355
4.942671342502958
4.90917508345343
4.873397172404482
4.835286961494632
5.1613951602255765
5.160426338976267
5.157518783291051
5.152669211195301
5.145872132107443
5.137119815616529
5.126402247190518
5.113707070218239
5.0990195135927845
5.082322303829225
5.063595560468865
5.042816673249187
5.019960159204453
4.994997497496871
4.967896939349688
4.938623289946299
4.907137658554118
4.873397172404482
4.8373546489791295
4.798958220280731
5.129327441292864
5.128352561983234
5.1254268114958
5.120546845796843
5.113707070218239
5.104899607240088
5.094114250780012
5.081338406365001
5.06655701635736
5.04975246918104
5.030904491242107
5.0099900199501395
4.9869830559166735
4.961854492022111
4.934571916590131
4.905099387372289
4.873397172404482
4.839421453025144
4.803123983409131
4.764451699828639
5.0990195135927845
5.098038838612354
5.095095681142799
5.090186637049765
5.083306010855534
5.07444578254611
5.063595560468865
5.050742519669757
5.035871324805669
5.018964036531842
5.0
4.978955713801841
4.955804677345546
4.93051721424842
4.903060268852505
4.873397172404482
4.841487374764082
4.807286136688766
4.770744176750625
4.731807265728392
5.070502933634888
5.06951674225463
5.06655701635736
5.061620293937506
5.054700782440045
5.045790324617146
5.034878350069642
5.021951811795888
5.006995106848018
4.9899899799498595
4.970915408654627
4.949747468305833
4.92645917470144
4.901020301937138
4.873397172404482
4.843552415324934
4.811444689487764
4.777028364998475
4.740253157796532
4.701063709417263
5.043808085167396
5.042816673249187
5.039841267341661
5.034878350069642
5.027922035990613
5.018964036531842
5.0079936102195655
4.994997497496871
4.979959839195493
4.962862077471023
4.94368283772331
4.922397789695586
4.898979485566356
4.873397172404482
4.845616575834287
4.815599651133803
4.783304297240559
4.748684028233506
4.711687595755898
4.672258554489466
5.018964036531842
5.0179677161177505
5.014977567247933
5.0099900199501395
5.002999100539595
4.993996395673509
4.982971001320397
4.969909455915671
4.954795656734998
4.937610758251403
4.918333050943175
4.896937818678118
4.873397172404482
4.8476798574163285
4.819751030914356
4.789572005931219
4.757099956906518
4.722287581247038
4.685082710048991
4.645427859734774
4.995998398718718
4.99499749749687
4.991993589739473
4.986983055916673
4.979959839195493
4.970915408654626
4.959838707054897
4.946716082412654
4.93153120237518
4.914264950122245
4.894895300208166
4.873397172404482
4.849742261192856
4.823898838076934
4.795831523312719
4.765501022977541
4.732863826479692
4.697871858618537
4.660472079092417
4.620606020859168
4.9749371855331
4.973932046178355
4.970915408654627
4.965883607174055
4.958830507286975
4.949747468305833
4.938623289946299
4.9254441424099005
4.910193478876367
4.892851929090027
4.873397172404482
4.851803788283282
4.828043081829324
4.802082881417188
4.773887304912004
4.743416490252569
4.710626285325551
4.675467891024383
4.637887450122092
4.59782557302906
4.955804677345547
4.954795656734998
4.951767361255979
4.946716082412655
4.9396356140913875
4.93051721424842
4.919349550499538
4.906118628814432
4.890807704254994
4.8733971724044824
4.853864439804639
4.832183771339828
4.8083261120685235
4.782258880487337
4.753945729601885
4.723346271447817
4.69041575982343
4.655104724922953
4.6173585522460785
4.577116996538323
4.938623289946299
4.937610758251403
4.934571916590131
4.929503017546495
4.922397789695587
4.913247398615299
4.902040391510457
4.888762624632127
4.873397172404482
4.8559242168715935
4.836320915737499
4.814561246884289
4.790615826801393
4.764451699828638
4.736032094485847
4.705316142407437
4.672258554489466
4.636809247747852
4.598912915026768
4.558508528016593
4.923413450036469
4.922397789695587
4.919349550499538
4.914264950122246
4.907137658554119
4.897958758503383
4.886716689148247
4.8733971724044824
4.857983120596447
4.8404545241123795
4.8207883172775805
4.798958220280731
4.774934554525329
4.748684028233506
4.720169488482378
4.689349635077342
4.656178690729126
4.620606020859169
4.58257569495584
4.5420259796703055
4.910193478876367
4.90917508345343
4.906118628814432
4.901020301937138
4.893873721296862
4.884669896727925
4.873397172404482
4.860041152089146
4.844584605515729
4.8270073544588685
4.807286136688766
4.78539444560216
4.761302342846965
4.734976240700686
4.706378650300037
4.675467891024383
4.642197755374064
4.606517122512408
4.568369512200167
4.527692569068709
5.4230987451825
5.422176684690384
5.419409561935692
5.414794548272353
5.408326913195984
5.4
5.389805191284746
5.377731863899501
5.3637673327615545
5.347896782848376
5.330103188494572
5.310367218940701
5.288667128870941
5.264978632435273
5.239274758971894
5.2115256883181535
5.181698563212646
5.149757275833493
5.115662224971465
5.079370039680118
5.376802023508026
5.375872022286245
5.373081052803876
5.36842621258782
5.361902647381805
5.3535035257296695
5.343220002957019
5.331041174104736
5.316954015223378
5.300943312279429
5.282991576748916
5.263078946776307
5.241183072551464
5.2172789842982334
5.191338940966964
5.163332257370235
5.13322510708424
5.10098029794274
5.06655701635736
5.029910535983717
5.331978994707313
5.331041174104736
5.328226721902889
5.323532661682466
5.316954015223378
5.3084837759948
5.298112871579843
5.285830114561005
5.271622141238881
5.2554733373883655
5.2373657500694
5.2172789842982334
5.195190083144216
5.171073389539159
5.1449003877626245
5.116639522186413
5.086255990411808
5.053711507397312
5.018964036531842
4.981967482832461
5.288667128870942
5.287721626560915
5.284884104689525
5.280151512977635
5.273518749374085
5.264978632435274
5.254521862167861
5.2421369688324635
5.227810249043093
5.2115256883181535
5.193264869039514
5.173006862551025
5.150728103870365
5.126402247190519
5.1000000000000005
5.071488933242387
5.040833264451424
5.007993610219566
4.972926703662543
4.935585071701227
5.246903848937962
5.2459508194416005
5.243090691567332
5.238320341483518
5.231634543811332
5.223025942880239
5.21248501196886
5.2
5.185556864985669
5.169139193328035
5.150728103870365
5.130302135352264
5.107837115648853
5.083306010855534
5.056678751908213
5.027922035990614
4.996999099459595
4.963869458396343
4.928488612140643
4.890807704254994
5.206726418777926
5.205766033928149
5.202883815731426
5.198076567346811
5.191338940966965
5.182663407939976
5.172040216394301
5.159457335805773
5.1449003877626245
5.128352561983235
5.109794516416487
5.089204259999789
5.066557016357361
5.041825066382213
5.014977567247934
4.985980344927165
4.954795656734999
4.921381919745714
4.8856934001224435
4.847679857416329
5.16817182376902
5.167204273105526
5.164300533470143
5.159457335805772
5.152669211195301
5.143928459844674
5.13322510708424
5.120546845796843
5.105878964487897
5.089204259999789
5.070502933634888
5.049752469181039
5.026927491022722
5.00199960015992
4.9749371855331
4.9457052075512955
4.914264950122246
4.880573736764972
4.844584605515729
4.806245936279167
5.1312766442669995
5.130302135352264
5.127377497317708
5.122499389946279
5.115662224971465
5.106858133921482
5.096076922496363
5.083306010855534
5.068530358989674
5.0517323761260355
5.032891812864648
5.011985634456667
4.988987873306568
4.963869458396342
4.936598018878993
4.907137658554118
4.875448697299562
4.841487374764082
4.805205510693585
4.766550115125193
5.096076922496364
5.095095681142799
5.092150822589606
5.0872389367907624
5.0803543183522155
5.071488933242387
5.060632371551999
5.047771785649585
5.032891812864648
5.015974481593782
4.996999099459595
4.975942121849892
4.952776998815917
4.927473997901968
4.9
4.870318264754369
4.838388161361178
4.804164859785726
4.767598976424087
4.7286361670147565
5.062608023538857
5.061620293937506
5.058655947976696
5.053711507397312
5.046781152378218
5.037856687124001
5.0269274910227235
5.013980454688671
4.998999899979996
4.981967482832461
4.962862077471024
4.941659640242335
4.9183330509431755
4.892851929090028
4.865182422068058
4.835286961494634
4.803123983409132
4.768647607026547
4.731807265728393
4.692547282660028
5.030904491242107
5.029910535983717
5.026927491022723
5.021951811795888
5.014977567247934
5.005996404313531
4.994997497496871
4.98196748283246
4.9668903752750575
4.949747468305833
4.93051721424842
4.909175083453431
4.8856934001224435
4.860041152089146
4.832183771339828
4.802082881417188
4.769696007084728
4.734976240700686
4.697871858618538
4.658325879540847
5.000999900019996
5.0
4.996999099459595
4.991993589739475
4.984977432245808
4.975942121849892
4.964876634922565
4.951767361255979
4.9365980188789935
4.919349550499538
4.9
4.878524367060187
4.854894437575343
4.829078587059855
4.801041553663122
4.770744176750625
4.738143096192854
4.703190406521939
4.665833258915282
4.626013402488152
4.972926703662543
4.971921157862422
4.968903299521938
4.963869458396343
4.956813492557492
4.947726750741193
4.9365980188789935
4.923413450036469
4.908156476723211
4.8908077042549944
4.87134478352744
4.849742261192857
4.825971404805462
4.800000000000001
4.77179211617606
4.741307836451879
4.708502946797421
4.673328578219169
4.635730794599704
4.595650117230424
4.946716082412655
4.945705207551295
4.942671342502958
4.937610758251403
4.93051721424842
4.921381919745713
4.910193478876367
4.896937818678118
4.881598098983569
4.864154602806124
4.844584605515729
4.822862220714997
4.79895822028073
4.77283982551269
4.744470465710584
4.71380949975707
4.68081189538738
4.645427859734774
4.607602413403309
4.567274898667694
4.922397789695586
4.921381919745713
4.918333050943175
4.913247398615298
4.906118628814432
4.896937818678118
4.885693400122443
4.872371086031933
4.856953777832356
4.839421453025144
4.819751030914356
4.797916214358062
4.773887304912003
4.747630988187687
4.719110085598766
4.688283267892417
4.6551047249229525
4.619523784980438
4.581484475582123
4.540925015897091
4.9
4.898979485566357
4.89591666595746
4.8908077042549944
4.883646178829912
4.874423042781577
4.863126566315132
4.849742261192857
4.8342527861087286
4.8166378315169185
4.796873982084583
4.77493455452533
4.750789408087882
4.724404724407087
4.695742752749559
4.664761515876241
4.631414470763764
4.595650117230424
4.557411546042337
4.5166359162544865
4.879549159502342
4.878524367060188
4.875448697299563
4.870318264754369
4.863126566315132
4.8538644398046396
4.842520005121301
4.829078587059856
4.813522618623497
4.795831523312721
4.775981574503822
4.753945729601886
4.729693436154188
4.70319040652194
4.674398357008099
4.643274706497561
4.609772228646444
4.57383865041171
4.535416188179427
4.494441010848847
4.861069841094654
4.860041152089146
4.856953777832357
4.851803788283282
4.84458460551573
4.835286961494633
4.823898838076935
4.810405388322278
4.794788837894741
4.7770283649984755
4.757099956906519
4.734976240700686
4.710626285325551
4.684015371452148
4.655104724922953
4.623851208678757
4.5902069670114
4.5541190146942805
4.515528761950255
4.474371464239419
4.84458460551573
4.843552415324934
4.8404545241123795
4.835286961494633
4.828043081829325
4.818713521262704
4.8072861366887665
4.793745925682754
4.778074926160117
4.760252094164763
4.740253157796533
4.71805044483418
4.693612681080535
4.666904755831214
4.637887450122093
4.606517122512409
4.572745346069471
4.536518488885503
4.497777228809804
4.456455991031439
4.83011387029333
4.829078587059855
4.825971404805462
4.8207883172775805
4.813522618623497
4.804164859785726
4.792702786528705
4.779121258139409
4.763402145525822
4.7455242070818695
4.725462940284264
4.703190406521939
4.678675026115834
4.651881339845203
4.622769732530489
4.591296113299599
4.557411546042337
4.521061822182927
4.4821869662029945
4.440720662234904
5.370288632839021
5.36935750346352
5.366563145999495
5.361902647381804
5.355371135598354
5.34696175411794
5.336665625650533
5.324471804789654
5.310367218940701
5.294336596779619
5.276362383309167
5.25642464038057
5.2345009313209605
5.2105661880452105
5.184592558726288
5.156549233741495
5.126402247190518
5.094114250780011
5.059644256269407
5.022947341949744
5.322593352868506
5.321653878260029
5.3188344587888805
5.314132102234569
5.30754180388624
5.299056519796709
5.288667128870942
5.276362383309168
5.262128846769148
5.245950819441601
5.227810249043093
5.207686626516615
5.18555686498567
5.1613951602255765
5.135172830587107
5.106858133921483
5.076416058598823
5.043808085167397
5.008991914547278
4.971921157862422
5.276362383309167
5.275414675643991
5.272570530585627
5.267826876426369
5.261178575186362
5.252618394667558
5.242136968832463
5.229722745997153
5.215361924162119
5.199038372622383
5.180733538795447
5.160426338976267
5.138093031466052
5.113707070218238
5.087238936790762
5.058655947976695
5.027922035990614
4.994997497496871
4.959838707054898
4.922397789695587
5.231634543811332
5.230678732248808
5.227810249043093
5.223025942880239
5.216320542297991
5.207686626516615
5.197114584074514
5.184592558726289
5.170106381884226
5.1536394906900505
5.135172830587107
5.114684741017769
5.092150822589606
5.067543783727971
5.040833264451424
5.011985634456668
4.980963762164909
4.947726750741193
4.912229636326055
4.874423042781577
5.188448708429139
5.187484939737175
5.184592558726288
5.179768334587948
5.173006862551025
5.164300533470143
5.1536394906900505
5.141011573610781
5.126402247190518
5.109794516416487
5.091168824543142
5.070502933634887
5.0477717856495845
5.0229473419497435
4.995998398718719
4.9668903752750575
4.935585071701226
4.902040391510457
4.866210024238575
4.828043081829324
5.146843692983109
5.145872132107443
5.142956348249516
5.138093031466052
5.1312766442669995
5.122499389946279
5.111751167652823
5.099019513592785
5.084289527554465
5.067543783727971
5.048762224545736
5.027922035990614
5.004997502496879
4.979959839195493
4.952776998815917
4.923413450036469
4.8918299234540035
4.857983120596447
4.8218253804964775
4.7833042972405595
5.106858133921483
5.105878964487897
5.10294032886923
5.0980388386123545
5.091168824543143
5.082322303829225
5.071488933242387
5.058655947976696
5.043808085167397
5.026927491022723
5.007993610219566
4.9869830559166735
4.963869458396343
4.938623289946299
4.911211663123471
4.88159809898357
4.849742261192857
4.815599651133803
4.7791212581394085
4.740253157796533
5.068530358989675
5.067543783727971
5.064582904840241
5.059644256269407
5.052722038663912
5.043808085167397
5.032891812864648
5.019960159204454
5.00499750249688
4.987985565335971
4.968903299521938
4.947726750741193
4.924428900898053
4.898979485566357
4.87134478352744
4.841487374764082
4.80936586256442
4.77493455452533
4.738143096192854
4.698936049788292
5.03189825016365
5.030904491242106
5.027922035990614
5.022947341949744
5.015974481593781
5.006995106848018
4.995998398718719
4.982971001320397
4.967896939349688
4.950757517794625
4.931531202375181
4.910193478876367
4.886716689148247
4.861069841094653
4.833218389437829
4.803123983409131
4.770744176750625
4.736032094485847
4.698936049788292
4.659399102888698
4.996999099459595
4.995998398718719
4.992995093127972
4.98798556533597
4.980963762164908
4.971921157862421
4.960846701924985
4.947726750741193
4.9325449820554095
4.915282290977803
4.895916665957459
4.874423042781576
4.850773134253961
4.824935232725927
4.796873982084582
4.766550115125193
4.733920151417849
4.698936049788292
4.661544808322666
4.621688003316537
4.963869458396343
4.962862077471023
4.959838707054898
4.954795656734998
4.947726750741193
4.938623289946299
4.927473997901968
4.914264950122246
4.898979485566356
4.88159809898357
4.862098312457287
4.8404545241123795
4.8166378315169185
4.790615826801393
4.762352359916263
4.731807265728392
4.698936049788292
4.663689526544408
4.626013402488151
4.585847795119241
4.9325449820554095
4.931531202375181
4.928488612140643
4.923413450036469
4.916299421312742
4.907137658554119
4.89591666595746
4.882622246293481
4.867237409455183
4.849742261192857
4.830113870293329
4.8083261120685235
4.784349485562275
4.758150901348127
4.729693436154187
4.698936049788292
4.665833258915282
4.6303347611160905
4.592385001282014
4.551922670696417
4.903060268852505
4.902040391510457
4.898979485566356
4.893873721296862
4.886716689148247
4.877499359302879
4.866210024238575
4.852834223420372
4.8373546489791295
4.8197510309143565
4.8
4.778074926160116
4.7539457296018846
4.727578661429125
4.698936049788292
4.6679760067935225
4.634652090502587
4.598912915026768
4.560701700396551
4.519955751995809
4.8754486972995625
4.874423042781577
4.87134478352744
4.866210024238576
4.859012245302537
4.849742261192857
4.838388161361178
4.824935232725928
4.80936586256442
4.791659420284376
4.77179211617606
4.749736834815167
4.725462940284264
4.698936049788292
4.6701177715342475
4.6389654018972815
4.605431575867782
4.5694638635183455
4.531004303683677
4.48998886412873
4.849742261192857
4.848711168960263
4.8456165758342875
4.8404545241123795
4.833218389437829
4.823898838076935
4.812483766206387
4.798958220280731
4.7833042972405595
4.765501022977543
4.7455242070818695
4.723346271447817
4.698936049788292
4.672258554489467
4.64327470649756
4.611941023040083
4.578209256903839
4.5420259796703055
4.503332099679081
4.462062303464622
4.825971404805461
4.824935232725927
4.8218253804964775
4.8166378315169185
4.809365862564419
4.8
4.788527957525152
4.774934554525329
4.759201613716317
4.741307836451879
4.72122865364515
4.698936049788292
4.674398357008097
4.6475800154489
4.618441295502196
4.586937976471886
4.553020975132884
4.516635916254486
4.477722635447622
4.4362146025637665
4.804164859785725
4.80312398340913
4.8
4.794788837894741
4.7874836814343285
4.778074926160116
4.766550115125193
4.752893855326457
4.737087712930804
4.719110085598766
4.6989360497882915
4.676537180435968
4.651881339845202
4.624932431938871
4.595650117230422
4.56398948289761
4.52990066116245
4.493328387732194
4.454211490264017
4.412482294582041
4.784349485562275
4.7833042972405595
4.780167361086849
4.77493455452533
4.767598976424087
4.758150901348128
4.746577714522328
4.732863826479694
4.7169905660283025
4.698936049788292
4.678675026115834
4.656178690729127
4.631414470763764
4.604345773288536
4.57493169347915
4.543126676640219
4.508880127038199
4.47213595499958
4.432832051860301
4.390899680020031
4.766550115125194
4.765501022977542
4.762352359916264
4.757099956906519
4.749736834815167
4.740253157796533
4.728636167014756
4.7148700936505135
4.698936049788292
4.6808118953873805
4.6604720790924175
4.637887450122092
4.613025037868319
4.585847795119241
4.5563142999578075
4.524378410345448
4.48998886412873
4.453088815642464
4.4136152981427825
4.371498598878879
4.750789408087882
4.749736834815167
4.746577714522328
4.741307836451879
4.73392015141785
4.724404724407087
4.712748667179272
4.698936049788292
4.682947789587239
4.664761515876241
4.644351407893249
4.621688003316537
4.596737973824482
4.5694638635183455
4.539823785126467
4.5077710678338585
4.473253849269009
4.436214602563767
4.3965895873961225
4.354308211415448
5.3188344587888805
5.317894320123332
5.315072906367325
5.310367218940701
5.303772242470448
5.295280917949491
5.284884104689525
5.272570530585627
5.258326730053963
5.2421369688324635
5.223983154643591
5.203844732503075
5.181698563212646
5.157518783291051
5.1312766442669995
5.10294032886923
5.07247474118896
5.039841267341661
5.00499750249688
4.967896939349688
5.269724850502159
5.2687759489277965
5.265928218272635
5.261178575186363
5.254521862167861
5.245950819441601
5.235456045083371
5.223025942880239
5.208646657242167
5.192301994298869
5.173973328110613
5.1536394906900505
5.131276644267
5.106858133921483
5.0803543183522155
5.051732376126036
5.020956084253278
4.987985565335971
4.952776998815918
4.915282290977804
5.222068555658764
5.221110992882645
5.2182372502599
5.213444159094831
5.206726418777926
5.198076567346811
5.187484939737175
5.174939613174245
5.160426338976268
5.143928459844674
5.1254268114958
5.104899607240088
5.082322303829225
5.057667446560717
5.030904491242107
5.0019996001599205
4.970915408654627
4.937610758251404
4.902040391510457
4.864154602806124
5.175905717843014
5.174939613174245
5.172040216394301
5.167204273105526
5.160426338976268
5.151698748956504
5.141011573610782
5.128352561983235
5.113707070218239
5.0970579749498635
5.078385570237849
5.057667446560717
5.034878350069642
5.0099900199501395
4.982971001320397
4.953786430600334
4.922397789695587
4.888762624632127
4.852834223420372
4.814561246884289
5.1312766442669995
5.130302135352264
5.127377497317708
5.122499389946279
5.115662224971465
5.106858133921482
5.096076922496363
5.083306010855534
5.068530358989674
5.0517323761260355
5.032891812864648
5.011985634456667
4.988987873306569
4.963869458396343
4.9365980188789935
4.907137658554119
4.8754486972995625
4.841487374764082
4.805205510693586
4.766550115125194
5.088221693283421
5.087238936790762
5.084289527554465
5.079370039680118
5.07247474118896
5.063595560468865
5.052722038663912
5.039841267341661
5.024937810560445
5.007993610219566
4.988987873306569
4.967896939349688
4.944694126030447
4.919349550499537
4.8918299234540035
4.862098312457287
4.830113870293329
4.795831523312719
4.759201613716317
4.720169488482378
5.046781152378217
5.045790324617145
5.042816673249187
5.037856687123999
5.030904491242106
5.021951811795888
5.01098792654702
4.99799959983992
4.982971001320397
4.965883607174055
4.946716082412655
4.9254441424099005
4.902040391510457
4.876474136094643
4.848711168960262
4.818713521262703
4.7864391775097275
4.751841748206688
4.714870093650513
4.675467891024383
5.006995106848018
5.005996404313531
5.002999100539595
4.99799959983992
4.990991885387111
4.98196748283246
4.970915408654627
4.957822102496216
4.942671342502958
4.9254441424099005
4.906118628814432
4.8846698967279245
4.861069841094653
4.835286961494632
4.807286136688766
4.777028364998475
4.744470465710584
4.709564735726646
4.672258554489466
4.632493928760187
4.968903299521938
4.967896939349688
4.964876634922564
4.959838707054898
4.952776998815917
4.94368283772331
4.9325449820554095
4.919349550499538
4.904079934095692
4.886716689148247
4.867237409455183
4.845616575834287
4.8218253804964775
4.795831523312719
4.767598976424087
4.737087712930805
4.70425339453563
4.669047011971501
4.631414470763764
4.591296113299599
4.93254498205541
4.931531202375181
4.928488612140644
4.923413450036469
4.9162994213127424
4.907137658554119
4.89591666595746
4.882622246293482
4.867237409455184
4.849742261192857
4.83011387029333
4.8083261120685235
4.784349485562275
4.758150901348128
4.729693436154188
4.698936049788292
4.665833258915282
4.6303347611160905
4.592385001282014
4.551922670696418
4.897958758503383
4.896937818678118
4.893873721296862
4.888762624632127
4.88159809898357
4.872371086031934
4.861069841094654
4.847679857416329
4.832183771339828
4.814561246884289
4.794788837894741
4.77283982551269
4.748684028233506
4.722287581247038
4.693612681080534
4.662617290749907
4.629254799641083
4.5934736311423405
4.55521678957215
4.514421336118285
4.865182422068057
4.864154602806124
4.861069841094654
4.8559242168715935
4.848711168960263
4.839421453025144
4.828043081829325
4.814561246884289
4.798958220280731
4.7812132351527685
4.761302342846966
4.739198244429114
4.7148700936505135
4.688283267892417
4.659399102888698
4.628174586162454
4.594562003064057
4.558508528016593
4.519955751995809
4.4788391353117385
4.8342527861087286
4.833218389437829
4.830113870293329
4.824935232725927
4.817675788178362
4.8083261120685235
4.796873982084583
4.7833042972405595
4.767598976424087
4.749736834815167
4.729693436154187
4.707440918375928
4.682947789587238
4.656178690729126
4.62709412050371
4.595650117230423
4.561797891182818
4.525483399593904
4.486646854834912
4.445222154178574
4.805205510693585
4.804164859785725
4.801041553663121
4.795831523312719
4.788527957525152
4.7791212581394085
4.767598976424087
4.753945729601885
4.738143096192854
4.720169488482378
4.7
4.6776062254105994
4.652956049652737
4.626013402488151
4.596737973824482
4.565084884205331
4.531004303683677
4.494441010848846
4.455333881989093
4.4136152981427825
4.778074926160116
4.777028364998475
4.773887304912004
4.768647607026545
4.761302342846965
4.751841748206688
4.740253157796532
4.726520919238589
4.710626285325551
4.692547282660026
4.672258554489466
4.649731175025067
4.624932431938871
4.597825573029059
4.568369512200167
4.536518488885502
4.502221673796171
4.465422712353221
4.426059195266145
4.384062043356595
4.752893855326458
4.751841748206689
4.748684028233507
4.743416490252569
4.736032094485847
4.72652091923859
4.7148700936505135
4.701063709417264
4.685082710048992
4.666904755831214
4.646504062195578
4.623851208678757
4.598912915026768
4.571651780264984
4.5420259796703055
4.509988913511873
4.47548880012005
4.43846820423443
4.398863489584555
4.356604182158393
4.729693436154188
4.728636167014756
4.725462940284264
4.720169488482379
4.712748667179272
4.703190406521939
4.691481642295961
4.6776062254106
4.661544808322667
4.643274706497561
4.622769732530489
4.6000000000000005
4.57493169347915
4.54752680036083
4.517742799230607
4.485532298401162
4.450842616853578
4.4136152981427825
4.3737855457258075
4.331281565541544
4.708502946797422
4.707440918375928
4.704253394535631
4.698936049788292
4.691481642295961
4.681879964287851
4.6701177715342475
4.656178690729127
4.640043103248073